<?xml version="1.0" encoding="ISO-8859-1"?>
<modeling>
 <generator>
  <i name="program" type="string">vasp </i>
  <i name="version" type="string">6.2.1  </i>
  <i name="subversion" type="string">16May21 (build Aug 15 2022 14:47:30) complex                          parallel </i>
  <i name="platform" type="string">LinuxGNU </i>
  <i name="date" type="string">2025 12 30 </i>
  <i name="time" type="string">16:12:29 </i>
 </generator>
 <incar>
  <i type="string" name="PREC">Accurate</i>
  <i type="string" name="ALGO">Fast</i>
  <i type="int" name="NELM">   100</i>
  <i name="EDIFF">      0.00000100</i>
  <i type="int" name="NSW">     0</i>
  <i name="ENCUT">    520.00000000</i>
  <i type="logical" name="LREAL"> F  </i>
  <i type="int" name="ISMEAR">     1</i>
  <i type="logical" name="LWAVE"> F  </i>
  <i type="logical" name="LCHARG"> F  </i>
  <i type="logical" name="LASPH"> T  </i>
 </incar>
 <primitive_cell>
  <structure name="primitive_cell" >
   <crystal>
    <varray name="basis" >
     <v>       2.68506490      -2.68506490       0.00000000 </v>
     <v>       2.68506490       0.00000000       2.68506490 </v>
     <v>       0.00000000      -2.68506490       2.68506490 </v>
    </varray>
    <i name="volume">     38.71634577 </i>
    <varray name="rec_basis" >
     <v>       0.18621524      -0.18621524      -0.18621524 </v>
     <v>       0.18621524       0.18621524       0.18621524 </v>
     <v>      -0.18621524      -0.18621524       0.18621524 </v>
    </varray>
   </crystal>
   <varray name="positions" >
    <v>       0.75000000       0.75000000       0.75000000 </v>
    <v>       0.00000000       0.00000000       0.00000000 </v>
   </varray>
  </structure>
  <varray name="primitive_index" >
   <v type="int" >        1 </v>
   <v type="int" >        2 </v>
  </varray>
 </primitive_cell>
 <kpoints>
  <generation param="Gamma">
   <v type="int" name="divisions">       5        5        5 </v>
   <v name="usershift">      0.00000000       0.00000000       0.00000000 </v>
   <v name="genvec1">      0.20000000       0.00000000       0.00000000 </v>
   <v name="genvec2">      0.00000000       0.20000000       0.00000000 </v>
   <v name="genvec3">     -0.00000000      -0.00000000       0.20000000 </v>
   <v name="shift">      0.00000000       0.00000000       0.00000000 </v>
  </generation>
  <varray name="kpointlist" >
   <v>       0.00000000       0.00000000       0.00000000 </v>
   <v>       0.20000000       0.00000000       0.00000000 </v>
   <v>       0.40000000       0.00000000       0.00000000 </v>
   <v>       0.20000000       0.20000000       0.00000000 </v>
   <v>       0.40000000       0.20000000       0.00000000 </v>
   <v>       0.40000000       0.40000000       0.00000000 </v>
   <v>       0.20000000       0.20000000       0.20000000 </v>
   <v>       0.40000000       0.20000000       0.20000000 </v>
   <v>       0.40000000       0.40000000       0.20000000 </v>
   <v>       0.40000000       0.40000000       0.40000000 </v>
  </varray>
  <varray name="weights" >
   <v>       0.00800000 </v>
   <v>       0.04800000 </v>
   <v>       0.04800000 </v>
   <v>       0.09600000 </v>
   <v>       0.19200000 </v>
   <v>       0.09600000 </v>
   <v>       0.06400000 </v>
   <v>       0.19200000 </v>
   <v>       0.19200000 </v>
   <v>       0.06400000 </v>
  </varray>
 </kpoints>
 <parameters>
  <separator name="general" >
   <i type="string" name="SYSTEM">unknown system</i>
   <i type="logical" name="LCOMPAT"> F  </i>
  </separator>
  <separator name="electronic" >
   <i type="string" name="PREC">accura</i>
   <i name="ENMAX">    520.00000000</i>
   <i name="ENAUG">    322.06900000</i>
   <i name="EDIFF">      0.00000100</i>
   <i type="int" name="IALGO">    68</i>
   <i type="int" name="IWAVPR">    10</i>
   <i type="int" name="NBANDS">    24</i>
   <i type="int" name="NBANDSLOW">    -1</i>
   <i type="int" name="NBANDSHIGH">    -1</i>
   <i name="NELECT">     32.00000000</i>
   <i type="int" name="TURBO">     0</i>
   <i type="int" name="IRESTART">     0</i>
   <i type="int" name="NREBOOT">     0</i>
   <i type="int" name="NMIN">     0</i>
   <i name="EREF">      0.00000000</i>
   <separator name="electronic smearing" >
    <i type="int" name="ISMEAR">     1</i>
    <i name="SIGMA">      0.20000000</i>
    <i name="KSPACING">      0.50000000</i>
    <i type="logical" name="KGAMMA"> T  </i>
    <i type="logical" name="KBLOWUP"> T  </i>
   </separator>
   <separator name="electronic projectors" >
    <i type="logical" name="LREAL"> F  </i>
    <v name="ROPT">      0.00000000</v>
    <i type="int" name="LMAXPAW">  -100</i>
    <i type="int" name="LMAXMIX">     2</i>
    <i type="logical" name="NLSPLINE"> F  </i>
   </separator>
   <separator name="electronic startup" >
    <i type="int" name="ISTART">     0</i>
    <i type="int" name="ICHARG">     2</i>
    <i type="int" name="INIWAV">     1</i>
   </separator>
   <separator name="electronic spin" >
    <i type="int" name="ISPIN">     1</i>
    <i type="logical" name="LNONCOLLINEAR"> F  </i>
    <v name="MAGMOM">      1.00000000      1.00000000      1.00000000      1.00000000      1.00000000      1.00000000      1.00000000      1.00000000</v>
    <i name="NUPDOWN">     -1.00000000</i>
    <i type="logical" name="LSORBIT"> F  </i>
    <v name="SAXIS">      0.00000000      0.00000000      1.00000000</v>
    <i type="logical" name="LSPIRAL"> F  </i>
    <v name="QSPIRAL">      0.00000000      0.00000000      0.00000000</v>
    <i type="logical" name="LZEROZ"> F  </i>
   </separator>
   <separator name="electronic exchange-correlation" >
    <i type="logical" name="LASPH"> T  </i>
    <i type="logical" name="LMETAGGA"> F  </i>
   </separator>
   <separator name="electronic convergence" >
    <i type="int" name="NELM">   100</i>
    <i type="int" name="NELMDL">     0</i>
    <i type="int" name="NELMIN">     2</i>
    <i name="ENINI">    520.00000000</i>
    <separator name="electronic convergence detail" >
     <i type="logical" name="LDIAG"> T  </i>
     <i type="logical" name="LSUBROT"> F  </i>
     <i name="WEIMIN">      0.00000000</i>
     <i name="EBREAK">      0.00000001</i>
     <i name="DEPER">      0.30000000</i>
     <i type="int" name="NRMM">     4</i>
     <i name="TIME">      0.40000000</i>
    </separator>
   </separator>
   <separator name="electronic mixer" >
    <i name="AMIX">      0.40000000</i>
    <i name="BMIX">      1.00000000</i>
    <i name="AMIN">      0.10000000</i>
    <i name="AMIX_MAG">      1.60000000</i>
    <i name="BMIX_MAG">      1.00000000</i>
    <separator name="electronic mixer details" >
     <i type="int" name="IMIX">     4</i>
     <i type="logical" name="MIXFIRST"> F  </i>
     <i type="int" name="MAXMIX">   -45</i>
     <i name="WC">    100.00000000</i>
     <i type="int" name="INIMIX">     1</i>
     <i type="int" name="MIXPRE">     1</i>
     <i type="int" name="MREMOVE">     5</i>
    </separator>
   </separator>
   <separator name="electronic dipolcorrection" >
    <i type="logical" name="LDIPOL"> F  </i>
    <i type="logical" name="LMONO"> F  </i>
    <i type="int" name="IDIPOL">     0</i>
    <i name="EPSILON">      1.00000000</i>
    <v name="DIPOL">   -100.00000000   -100.00000000   -100.00000000</v>
    <i name="EFIELD">      0.00000000</i>
   </separator>
  </separator>
  <separator name="grids" >
   <i type="int" name="NGX">    40</i>
   <i type="int" name="NGY">    40</i>
   <i type="int" name="NGZ">    40</i>
   <i type="int" name="NGXF">    80</i>
   <i type="int" name="NGYF">    80</i>
   <i type="int" name="NGZF">    80</i>
   <i type="logical" name="ADDGRID"> F  </i>
  </separator>
  <separator name="ionic" >
   <i type="int" name="NSW">     0</i>
   <i type="int" name="IBRION">    -1</i>
   <i type="int" name="MDALGO">     0</i>
   <i type="int" name="ISIF">     2</i>
   <i name="PSTRESS">      0.00000000</i>
   <i name="EDIFFG">      0.00001000</i>
   <i type="int" name="NFREE">     0</i>
   <i name="POTIM">      0.50000000</i>
   <i name="SMASS">     -3.00000000</i>
   <i name="SCALEE">      1.00000000</i>
  </separator>
  <separator name="ionic md" >
   <i name="TEBEG">      0.00010000</i>
   <i name="TEEND">      0.00010000</i>
   <i type="int" name="NBLOCK">     1</i>
   <i type="int" name="KBLOCK">     1</i>
   <i type="int" name="NPACO">   256</i>
   <i name="APACO">     16.00000000</i>
  </separator>
  <separator name="symmetry" >
   <i type="int" name="ISYM">     2</i>
   <i name="SYMPREC">      0.00001000</i>
  </separator>
  <separator name="dos" >
   <i type="int" name="LORBIT">     0</i>
   <v name="RWIGS">     -1.00000000</v>
   <i type="int" name="NEDOS">   301</i>
   <i name="EMIN">     10.00000000</i>
   <i name="EMAX">    -10.00000000</i>
   <i name="EFERMI">      0.00000000</i>
  </separator>
  <separator name="writing" >
   <i type="int" name="NWRITE">     2</i>
   <i type="logical" name="LWAVE"> F  </i>
   <i type="logical" name="LDOWNSAMPLE"> F  </i>
   <i type="logical" name="LCHARG"> F  </i>
   <i type="logical" name="LPARD"> F  </i>
   <i type="logical" name="LVTOT"> F  </i>
   <i type="logical" name="LVHAR"> F  </i>
   <i type="logical" name="LELF"> F  </i>
   <i type="logical" name="LOPTICS"> F  </i>
   <v name="STM">      0.00000000      0.00000000      0.00000000      0.00000000      0.00000000      0.00000000      0.00000000</v>
  </separator>
  <separator name="performance" >
   <i type="int" name="NPAR">     4</i>
   <i type="int" name="NSIM">     4</i>
   <i type="int" name="NBLK">    -1</i>
   <i type="logical" name="LPLANE"> T  </i>
   <i type="logical" name="LSCALAPACK"> T  </i>
   <i type="logical" name="LSCAAWARE"> F  </i>
   <i type="logical" name="LSCALU"> F  </i>
   <i type="logical" name="LASYNC"> F  </i>
   <i type="logical" name="LORBITALREAL"> F  </i>
  </separator>
  <separator name="miscellaneous" >
   <i type="int" name="IDIOT">     3</i>
   <i type="int" name="PHON_NSTRUCT">    -1</i>
   <i type="logical" name="LMUSIC"> F  </i>
   <v name="POMASS">     28.08500000</v>
   <v name="DARWINR">      0.00000000</v>
   <v name="DARWINV">      1.00000000</v>
   <i type="logical" name="LCORR"> T  </i>
  </separator>
  <i type="logical" name="GGA_COMPAT"> T  </i>
  <i type="logical" name="LBERRY"> F  </i>
  <i type="int" name="ICORELEVEL">     0</i>
  <i type="logical" name="LDAU"> F  </i>
  <i type="int" name="I_CONSTRAINED_M">     0</i>
  <separator name="electronic exchange-correlation" >
   <i type="string" name="GGA">--</i>
   <i type="int" name="VOSKOWN">     0</i>
   <i type="logical" name="LHFCALC"> F  </i>
   <i type="string" name="PRECFOCK"></i>
   <i type="logical" name="LSYMGRAD"> F  </i>
   <i type="logical" name="LHFONE"> F  </i>
   <i type="logical" name="LRHFCALC"> F  </i>
   <i type="logical" name="LTHOMAS"> F  </i>
   <i type="logical" name="LMODELHF"> F  </i>
   <i type="logical" name="LFOCKACE"> F  </i>
   <i name="ENCUT4O">     -1.00000000</i>
   <i type="int" name="EXXOEP">     0</i>
   <i type="int" name="FOURORBIT">     0</i>
   <i name="AEXX">      0.00000000</i>
   <i name="HFALPHA">      0.00000000</i>
   <i name="MCALPHA">      0.00000000</i>
   <i name="ALDAX">      1.00000000</i>
   <i name="AGGAX">      1.00000000</i>
   <i name="ALDAC">      1.00000000</i>
   <i name="AGGAC">      1.00000000</i>
   <i type="int" name="NKREDX">     1</i>
   <i type="int" name="NKREDY">     1</i>
   <i type="int" name="NKREDZ">     1</i>
   <i type="logical" name="SHIFTRED"> F  </i>
   <i type="logical" name="ODDONLY"> F  </i>
   <i type="logical" name="EVENONLY"> F  </i>
   <i type="int" name="LMAXFOCK">     0</i>
   <i type="int" name="NMAXFOCKAE">     0</i>
   <i type="logical" name="LFOCKAEDFT"> F  </i>
   <i name="HFSCREEN">      0.00000000</i>
   <i name="HFSCREENC">      0.00000000</i>
   <i type="int" name="NBANDSGWLOW">     0</i>
  </separator>
  <separator name="vdW DFT" >
   <i type="logical" name="LUSE_VDW"> F  </i>
   <i name="Zab_VDW">     -0.84910000</i>
   <i name="PARAM1">      0.12340000</i>
   <i name="PARAM2">      1.00000000</i>
   <i name="PARAM3">      0.00000000</i>
  </separator>
  <separator name="model GW" >
   <i type="int" name="MODEL_GW">     0</i>
   <i name="MODEL_EPS0">     11.61490373</i>
   <i name="MODEL_ALPHA">      1.00000000</i>
  </separator>
  <separator name="linear response parameters" >
   <i type="logical" name="LEPSILON"> F  </i>
   <i type="logical" name="LRPA"> F  </i>
   <i type="logical" name="LNABLA"> F  </i>
   <i type="logical" name="LVEL"> F  </i>
   <i type="int" name="KINTER">     0</i>
   <i name="CSHIFT">      0.10000000</i>
   <i name="OMEGAMAX">     -1.00000000</i>
   <i name="DEG_THRESHOLD">      0.00200000</i>
   <i name="RTIME">     -0.10000000</i>
   <i name="WPLASMAI">      0.00000000</i>
   <v name="DFIELD">      0.00000000      0.00000000      0.00000000</v>
   <v name="WPLASMA">      0.00000000      0.00000000      0.00000000      0.00000000      0.00000000      0.00000000      0.00000000      0.00000000      0.00000000</v>
  </separator>
  <separator name="orbital magnetization" >
   <i type="logical" name="NUCIND"> F  </i>
   <v name="MAGPOS">      0.00000000      0.00000000      0.00000000</v>
   <i type="logical" name="LNICSALL"> T  </i>
   <i type="logical" name="ORBITALMAG"> F  </i>
   <i type="logical" name="LMAGBLOCH"> F  </i>
   <i type="logical" name="LCHIMAG"> F  </i>
   <i type="logical" name="LGAUGE"> T  </i>
   <i type="int" name="MAGATOM">     0</i>
   <v name="MAGDIPOL">      0.00000000      0.00000000      0.00000000</v>
   <v name="AVECCONST">      0.00000000      0.00000000      0.00000000</v>
  </separator>
  <separator name="response functions" >
   <i type="logical" name="LFINITE_TEMPERATURE"> F  </i>
   <i type="logical" name="LADDER"> F  </i>
   <i type="logical" name="LRPAFORCE"> F  </i>
   <i type="logical" name="LFXC"> F  </i>
   <i type="logical" name="LHARTREE"> T  </i>
   <i type="int" name="IBSE">     0</i>
   <v type="int" name="KPOINT">    -1     0     0     0</v>
   <i type="logical" name="LTCTC"> F  </i>
   <i type="logical" name="LTCTE"> F  </i>
   <i type="logical" name="LTETE"> F  </i>
   <i type="logical" name="LTRIPLET"> F  </i>
   <i type="logical" name="LFXCEPS"> F  </i>
   <i type="logical" name="LFXHEG"> F  </i>
   <i type="int" name="NATURALO">     2</i>
   <i type="logical" name="LHOLEGF"> F  </i>
   <i type="logical" name="L2ORDER"> F  </i>
   <i type="logical" name="LDMP1"> F  </i>
   <i type="logical" name="LMP2LT"> F  </i>
   <i type="logical" name="LSMP2LT"> F  </i>
   <i type="logical" name="LGWLF"> F  </i>
   <i name="ENCUTGW">     -2.00000000</i>
   <i name="ENCUTGWSOFT">     -2.00000000</i>
   <i name="ENCUTLF">     -1.00000000</i>
   <i type="logical" name="LESF_SPLINES"> F  </i>
   <i type="int" name="LMAXMP2">    -1</i>
   <i name="SCISSOR">      0.00000000</i>
   <i type="int" name="NOMEGA">     0</i>
   <i type="int" name="NOMEGAR">     0</i>
   <i type="int" name="NBANDSGW">    -1</i>
   <i type="int" name="NBANDSO">    -1</i>
   <i type="int" name="NBANDSV">    -1</i>
   <i type="int" name="NELM">   100</i>
   <i type="int" name="NELMHF">     1</i>
   <i type="int" name="DIM">     3</i>
   <i type="int" name="IESPILON">     4</i>
   <i type="int" name="ANTIRES">     0</i>
   <i name="OMEGAMAX">    -30.00000000</i>
   <i name="OMEGAMIN">    -30.00000000</i>
   <i name="OMEGATL">   -200.00000000</i>
   <i type="int" name="OMEGAGRID">     0</i>
   <i name="CSHIFT">     -0.10000000</i>
   <i type="logical" name="LSELFENERGY"> F  </i>
   <i type="logical" name="LSPECTRAL"> F  </i>
   <i type="logical" name="LSPECTRALGW"> F  </i>
   <i type="logical" name="LSINGLES"> F  </i>
   <i type="logical" name="LFERMIGW"> F  </i>
   <i type="logical" name="ODDONLYGW"> F  </i>
   <i type="logical" name="EVENONLYGW"> F  </i>
   <i type="int" name="NKREDLFX">     1</i>
   <i type="int" name="NKREDLFY">     1</i>
   <i type="int" name="NKREDLFZ">     1</i>
   <i type="int" name="MAXMEM">  2800</i>
   <i type="int" name="TELESCOPE">     0</i>
   <i type="int" name="NTAUPAR">    -1</i>
   <i type="int" name="NOMEGAPAR">    -1</i>
   <i name="DAMP_NEWTON">      0.80000001</i>
   <i name="LAMBDA">      1.00000000</i>
  </separator>
  <separator name="External order field" >
   <i name="OFIELD_KAPPA">      0.00000000</i>
   <v name="OFIELD_K">      0.00000000      0.00000000      0.00000000</v>
   <i name="OFIELD_Q6_NEAR">      0.00000000</i>
   <i name="OFIELD_Q6_FAR">      0.00000000</i>
   <i name="OFIELD_A">      0.00000000</i>
  </separator>
 </parameters>
 <atominfo>
  <atoms>       8 </atoms>
  <types>       1 </types>
  <array name="atoms" >
   <dimension dim="1">ion</dimension>
   <field type="string">element</field>
   <field type="int">atomtype</field>
   <set>
    <rc><c>Si</c><c>   1</c></rc>
    <rc><c>Si</c><c>   1</c></rc>
    <rc><c>Si</c><c>   1</c></rc>
    <rc><c>Si</c><c>   1</c></rc>
    <rc><c>Si</c><c>   1</c></rc>
    <rc><c>Si</c><c>   1</c></rc>
    <rc><c>Si</c><c>   1</c></rc>
    <rc><c>Si</c><c>   1</c></rc>
   </set>
  </array>
  <array name="atomtypes" >
   <dimension dim="1">type</dimension>
   <field type="int">atomspertype</field>
   <field type="string">element</field>
   <field>mass</field>
   <field>valence</field>
   <field type="string">pseudopotential</field>
   <set>
    <rc><c>   8</c><c>Si</c><c>     28.08500000</c><c>      4.00000000</c><c> PAW_PBE Si 05Jan2001                   </c></rc>
   </set>
  </array>
 </atominfo>
 <structure name="initialpos" >
  <crystal>
   <varray name="basis" >
    <v>       5.37012981       0.00000000       0.00000000 </v>
    <v>       0.00000000       5.37012981       0.00000000 </v>
    <v>       0.00000000       0.00000000       5.37012981 </v>
   </varray>
   <i name="volume">    154.86538309 </i>
   <varray name="rec_basis" >
    <v>       0.18621524      -0.00000000       0.00000000 </v>
    <v>       0.00000000       0.18621524       0.00000000 </v>
    <v>      -0.00000000      -0.00000000       0.18621524 </v>
   </varray>
  </crystal>
  <varray name="positions" >
   <v>       0.75000000       0.75000000       0.25000000 </v>
   <v>       0.00000000       0.50000000       0.50000000 </v>
   <v>       0.75000000       0.25000000       0.75000000 </v>
   <v>       0.00000000       0.00000000       0.00000000 </v>
   <v>       0.25000000       0.75000000       0.75000000 </v>
   <v>       0.50000000       0.50000000       0.00000000 </v>
   <v>       0.25000000       0.25000000       0.25000000 </v>
   <v>       0.50000000       0.00000000       0.50000000 </v>
  </varray>
 </structure>
 <calculation>
  <scstep>
   <time name="dav">    0.35    0.35</time>
   <time name="total">    0.45    0.45</time>
   <energy>
    <i name="alphaZ">     13.91167590 </i>
    <i name="ewald">   -924.44691595 </i>
    <i name="hartreedc">    -42.03052573 </i>
    <i name="XCdc">    -73.87887396 </i>
    <i name="pawpsdc">    263.82083246 </i>
    <i name="pawaedc">   -123.07410713 </i>
    <i name="eentropy">      0.01338988 </i>
    <i name="bandstr">    135.55507002 </i>
    <i name="atom">    824.53081094 </i>
    <i name="e_fr_energy">     74.40135642 </i>
    <i name="e_wo_entrp">     74.38796654 </i>
    <i name="e_0_energy">     74.39689313 </i>
   </energy>
  </scstep>
  <scstep>
   <time name="dav">    0.43    0.43</time>
   <time name="total">    0.43    0.43</time>
   <energy>
    <i name="e_fr_energy">    -38.94395745 </i>
    <i name="e_wo_entrp">    -38.94622035 </i>
    <i name="e_0_energy">    -38.94471175 </i>
   </energy>
  </scstep>
  <scstep>
   <time name="dav">    0.41    0.41</time>
   <time name="total">    0.41    0.41</time>
   <energy>
    <i name="e_fr_energy">    -43.97606228 </i>
    <i name="e_wo_entrp">    -43.97782055 </i>
    <i name="e_0_energy">    -43.97664837 </i>
   </energy>
  </scstep>
  <scstep>
   <time name="dav">    0.39    0.39</time>
   <time name="total">    0.39    0.39</time>
   <energy>
    <i name="e_fr_energy">    -44.05484062 </i>
    <i name="e_wo_entrp">    -44.05660256 </i>
    <i name="e_0_energy">    -44.05542793 </i>
   </energy>
  </scstep>
  <scstep>
   <time name="dav">    0.42    0.42</time>
   <time name="total">    0.47    0.47</time>
   <energy>
    <i name="e_fr_energy">    -44.05680993 </i>
    <i name="e_wo_entrp">    -44.05857253 </i>
    <i name="e_0_energy">    -44.05739746 </i>
   </energy>
  </scstep>
  <scstep>
   <time name="diag">    0.08    0.08</time>
   <time name="diis">    0.27    0.27</time>
   <time name="orth">    0.00    0.00</time>
   <time name="total">    0.50    0.50</time>
   <energy>
    <i name="e_fr_energy">    -43.49535007 </i>
    <i name="e_wo_entrp">    -43.49711028 </i>
    <i name="e_0_energy">    -43.49593681 </i>
   </energy>
  </scstep>
  <scstep>
   <time name="diag">    0.08    0.08</time>
   <time name="diis">    0.29    0.29</time>
   <time name="orth">    0.00    0.00</time>
   <time name="total">    0.51    0.51</time>
   <energy>
    <i name="e_fr_energy">    -43.24300329 </i>
    <i name="e_wo_entrp">    -43.24535309 </i>
    <i name="e_0_energy">    -43.24378656 </i>
   </energy>
  </scstep>
  <scstep>
   <time name="diag">    0.08    0.08</time>
   <time name="diis">    0.29    0.29</time>
   <time name="orth">    0.00    0.00</time>
   <time name="total">    0.51    0.51</time>
   <energy>
    <i name="e_fr_energy">    -43.25204804 </i>
    <i name="e_wo_entrp">    -43.25410700 </i>
    <i name="e_0_energy">    -43.25273436 </i>
   </energy>
  </scstep>
  <scstep>
   <time name="diag">    0.08    0.08</time>
   <time name="diis">    0.30    0.30</time>
   <time name="orth">    0.00    0.00</time>
   <time name="total">    0.53    0.53</time>
   <energy>
    <i name="e_fr_energy">    -43.25327731 </i>
    <i name="e_wo_entrp">    -43.25539087 </i>
    <i name="e_0_energy">    -43.25398183 </i>
   </energy>
  </scstep>
  <scstep>
   <time name="diag">    0.08    0.08</time>
   <time name="diis">    0.29    0.29</time>
   <time name="orth">    0.00    0.00</time>
   <time name="total">    0.51    0.51</time>
   <energy>
    <i name="e_fr_energy">    -43.25368664 </i>
    <i name="e_wo_entrp">    -43.25573055 </i>
    <i name="e_0_energy">    -43.25436794 </i>
   </energy>
  </scstep>
  <scstep>
   <time name="diag">    0.08    0.08</time>
   <time name="diis">    0.32    0.32</time>
   <time name="orth">    0.00    0.00</time>
   <time name="total">    0.54    0.54</time>
   <energy>
    <i name="e_fr_energy">    -43.25368740 </i>
    <i name="e_wo_entrp">    -43.25575651 </i>
    <i name="e_0_energy">    -43.25437711 </i>
   </energy>
  </scstep>
  <scstep>
   <time name="diag">    0.08    0.08</time>
   <time name="diis">    0.33    0.33</time>
   <time name="orth">    0.00    0.00</time>
   <time name="total">    0.55    0.55</time>
   <energy>
    <i name="e_fr_energy">    -43.25371317 </i>
    <i name="e_wo_entrp">    -43.25578246 </i>
    <i name="e_0_energy">    -43.25440293 </i>
   </energy>
  </scstep>
  <scstep>
   <time name="diag">    0.08    0.08</time>
   <time name="diis">    0.30    0.30</time>
   <time name="orth">    0.00    0.00</time>
   <time name="total">    0.52    0.52</time>
   <energy>
    <i name="e_fr_energy">    -43.25371724 </i>
    <i name="e_wo_entrp">    -43.25578372 </i>
    <i name="e_0_energy">    -43.25440607 </i>
   </energy>
  </scstep>
  <scstep>
   <time name="diag">    0.08    0.08</time>
   <time name="diis">    0.28    0.28</time>
   <time name="orth">    0.00    0.00</time>
   <time name="total">    0.50    0.50</time>
   <energy>
    <i name="e_fr_energy">    -43.25371829 </i>
    <i name="e_wo_entrp">    -43.25578611 </i>
    <i name="e_0_energy">    -43.25440757 </i>
   </energy>
  </scstep>
  <scstep>
   <time name="diag">    0.08    0.08</time>
   <time name="diis">    0.22    0.22</time>
   <time name="orth">    0.00    0.00</time>
   <time name="total">    0.40    0.40</time>
   <energy>
    <i name="alphaZ">     13.91167590 </i>
    <i name="ewald">   -924.44691595 </i>
    <i name="hartreedc">    -58.12275595 </i>
    <i name="XCdc">    -71.23364872 </i>
    <i name="pawpsdc">    301.72984848 </i>
    <i name="pawaedc">   -162.00331296 </i>
    <i name="eentropy">      0.00206764 </i>
    <i name="bandstr">     32.37851224 </i>
    <i name="atom">    824.53081094 </i>
    <i name="e_fr_energy">    -43.25371838 </i>
    <i name="e_wo_entrp">    -43.25578602 </i>
    <i name="e_0_energy">    -43.25440759 </i>
   </energy>
  </scstep>
  <structure>
   <crystal>
    <varray name="basis" >
     <v>       5.37012981       0.00000000       0.00000000 </v>
     <v>       0.00000000       5.37012981       0.00000000 </v>
     <v>       0.00000000       0.00000000       5.37012981 </v>
    </varray>
    <i name="volume">    154.86538309 </i>
    <varray name="rec_basis" >
     <v>       0.18621524      -0.00000000       0.00000000 </v>
     <v>       0.00000000       0.18621524       0.00000000 </v>
     <v>      -0.00000000      -0.00000000       0.18621524 </v>
    </varray>
   </crystal>
   <varray name="positions" >
    <v>       0.75000000       0.75000000       0.25000000 </v>
    <v>       0.00000000       0.50000000       0.50000000 </v>
    <v>       0.75000000       0.25000000       0.75000000 </v>
    <v>       0.00000000       0.00000000       0.00000000 </v>
    <v>       0.25000000       0.75000000       0.75000000 </v>
    <v>       0.50000000       0.50000000       0.00000000 </v>
    <v>       0.25000000       0.25000000       0.25000000 </v>
    <v>       0.50000000       0.00000000       0.50000000 </v>
   </varray>
  </structure>
  <varray name="forces" >
   <v>      -0.00000000       0.00000000      -0.00000000 </v>
   <v>       0.00000000      -0.00000000       0.00000000 </v>
   <v>       0.00000000       0.00000000      -0.00000000 </v>
   <v>      -0.00000000      -0.00000000       0.00000000 </v>
   <v>      -0.00000000       0.00000000       0.00000000 </v>
   <v>       0.00000000      -0.00000000      -0.00000000 </v>
   <v>       0.00000000       0.00000000      -0.00000000 </v>
   <v>      -0.00000000      -0.00000000       0.00000000 </v>
  </varray>
  <varray name="stress" >
   <v>      54.50049640       0.00000000      -0.00000000 </v>
   <v>       0.00000000      54.50049640       0.00000000 </v>
   <v>       0.00000000       0.00000000      54.50049640 </v>
  </varray>
  <energy>
   <i name="e_fr_energy">    -43.25371838 </i>
   <i name="e_wo_entrp">    -43.25578602 </i>
   <i name="e_0_energy">    -43.25440759 </i>
  </energy>
  <time name="totalsc">    7.73    7.73</time>
  <eigenvalues>
   <array>
    <dimension dim="1">band</dimension>
    <dimension dim="2">kpoint</dimension>
    <dimension dim="3">spin</dimension>
    <field>eigene</field>
    <field>occ</field>
    <set>
     <set comment="spin 1">
      <set comment="kpoint 1">
       <r>   -6.0202    1.0000 </r>
       <r>   -1.7518    1.0000 </r>
       <r>   -1.7518    1.0000 </r>
       <r>   -1.7518    1.0000 </r>
       <r>   -1.7518    1.0000 </r>
       <r>   -1.7518    1.0000 </r>
       <r>   -1.7518    1.0000 </r>
       <r>    3.2337    1.0000 </r>
       <r>    3.2337    1.0000 </r>
       <r>    3.2337    1.0000 </r>
       <r>    3.2337    1.0000 </r>
       <r>    3.2337    1.0000 </r>
       <r>    3.2337    1.0000 </r>
       <r>    6.1723    0.8908 </r>
       <r>    6.1723    0.8908 </r>
       <r>    6.1723    0.8908 </r>
       <r>    6.8136   -0.0005 </r>
       <r>    6.8136   -0.0005 </r>
       <r>    6.8136   -0.0005 </r>
       <r>    6.8136   -0.0005 </r>
       <r>    6.8136   -0.0005 </r>
       <r>    6.8136   -0.0005 </r>
       <r>    8.7507   -0.0000 </r>
       <r>    8.7507   -0.0000 </r>
      </set>
      <set comment="kpoint 2">
       <r>   -5.8403    1.0000 </r>
       <r>   -3.2271    1.0000 </r>
       <r>   -1.6939    1.0000 </r>
       <r>   -1.6939    1.0000 </r>
       <r>   -1.6939    1.0000 </r>
       <r>   -1.6939    1.0000 </r>
       <r>   -0.0643    1.0000 </r>
       <r>    2.8005    1.0000 </r>
       <r>    2.8005    1.0000 </r>
       <r>    2.8005    1.0000 </r>
       <r>    2.8005    1.0000 </r>
       <r>    3.3952    1.0000 </r>
       <r>    3.3952    1.0000 </r>
       <r>    5.2631    1.0000 </r>
       <r>    5.5731    1.0000 </r>
       <r>    5.5731    1.0000 </r>
       <r>    6.6930   -0.0064 </r>
       <r>    7.4178   -0.0000 </r>
       <r>    7.6972   -0.0000 </r>
       <r>    7.6972   -0.0000 </r>
       <r>    7.6972   -0.0000 </r>
       <r>    7.6972   -0.0000 </r>
       <r>    8.3600   -0.0000 </r>
       <r>    9.5701   -0.0000 </r>
      </set>
      <set comment="kpoint 3">
       <r>   -5.3043    1.0000 </r>
       <r>   -4.4251    1.0000 </r>
       <r>   -1.5911    1.0000 </r>
       <r>   -1.5911    1.0000 </r>
       <r>   -1.5911    1.0000 </r>
       <r>   -1.5911    1.0000 </r>
       <r>    1.7452    1.0000 </r>
       <r>    2.2594    1.0000 </r>
       <r>    2.2594    1.0000 </r>
       <r>    2.2594    1.0000 </r>
       <r>    2.2594    1.0000 </r>
       <r>    3.5722    1.0000 </r>
       <r>    3.8722    1.0000 </r>
       <r>    3.8722    1.0000 </r>
       <r>    4.6336    1.0000 </r>
       <r>    4.6336    1.0000 </r>
       <r>    6.9913   -0.0000 </r>
       <r>    7.6138   -0.0000 </r>
       <r>    8.5460   -0.0000 </r>
       <r>    9.6114   -0.0000 </r>
       <r>    9.6114   -0.0000 </r>
       <r>    9.6114   -0.0000 </r>
       <r>    9.6114   -0.0000 </r>
       <r>   10.1065   -0.0000 </r>
      </set>
      <set comment="kpoint 4">
       <r>   -5.6624    1.0000 </r>
       <r>   -3.1033    1.0000 </r>
       <r>   -3.1033    1.0000 </r>
       <r>   -1.9733    1.0000 </r>
       <r>   -1.3659    1.0000 </r>
       <r>   -0.1502    1.0000 </r>
       <r>   -0.1502    1.0000 </r>
       <r>    1.9604    1.0000 </r>
       <r>    2.8465    1.0000 </r>
       <r>    2.8465    1.0000 </r>
       <r>    3.1808    1.0000 </r>
       <r>    3.1808    1.0000 </r>
       <r>    3.5185    1.0000 </r>
       <r>    4.1384    1.0000 </r>
       <r>    4.9674    1.0000 </r>
       <r>    5.9949    1.0308 </r>
       <r>    7.1447   -0.0000 </r>
       <r>    7.6280   -0.0000 </r>
       <r>    7.6280   -0.0000 </r>
       <r>    8.2098   -0.0000 </r>
       <r>    8.2098   -0.0000 </r>
       <r>    9.1187   -0.0000 </r>
       <r>    9.2738   -0.0000 </r>
       <r>    9.3257   -0.0000 </r>
      </set>
      <set comment="kpoint 5">
       <r>   -5.1337    1.0000 </r>
       <r>   -4.2699    1.0000 </r>
       <r>   -2.7669    1.0000 </r>
       <r>   -2.3361    1.0000 </r>
       <r>   -0.9257    1.0000 </r>
       <r>   -0.4576    1.0000 </r>
       <r>    1.3722    1.0000 </r>
       <r>    1.6776    1.0000 </r>
       <r>    2.0531    1.0000 </r>
       <r>    2.7834    1.0000 </r>
       <r>    3.0718    1.0000 </r>
       <r>    3.2705    1.0000 </r>
       <r>    3.3673    1.0000 </r>
       <r>    4.0185    1.0000 </r>
       <r>    4.0204    1.0000 </r>
       <r>    5.1797    1.0000 </r>
       <r>    7.9370   -0.0000 </r>
       <r>    8.3194   -0.0000 </r>
       <r>    8.5291   -0.0000 </r>
       <r>    9.2163   -0.0000 </r>
       <r>    9.5887   -0.0000 </r>
       <r>    9.9228   -0.0000 </r>
       <r>   10.0432   -0.0000 </r>
       <r>   10.7165   -0.0000 </r>
      </set>
      <set comment="kpoint 6">
       <r>   -4.6299    1.0000 </r>
       <r>   -3.8204    1.0000 </r>
       <r>   -3.8204    1.0000 </r>
       <r>   -3.1341    1.0000 </r>
       <r>   -0.2180    1.0000 </r>
       <r>    0.5885    1.0000 </r>
       <r>    0.5885    1.0000 </r>
       <r>    1.6557    1.0000 </r>
       <r>    1.7576    1.0000 </r>
       <r>    2.3613    1.0000 </r>
       <r>    2.3613    1.0000 </r>
       <r>    3.0689    1.0000 </r>
       <r>    4.3034    1.0000 </r>
       <r>    4.3265    1.0000 </r>
       <r>    4.3265    1.0000 </r>
       <r>    5.3073    1.0000 </r>
       <r>    8.0630   -0.0000 </r>
       <r>    9.1342   -0.0000 </r>
       <r>    9.3864   -0.0000 </r>
       <r>    9.3864   -0.0000 </r>
       <r>    9.8697   -0.0000 </r>
       <r>    9.8697   -0.0000 </r>
       <r>   10.2158   -0.0000 </r>
       <r>   10.5508   -0.0000 </r>
      </set>
      <set comment="kpoint 7">
       <r>   -5.4873    1.0000 </r>
       <r>   -3.0156    1.0000 </r>
       <r>   -3.0156    1.0000 </r>
       <r>   -3.0156    1.0000 </r>
       <r>   -0.3283    1.0000 </r>
       <r>   -0.3283    1.0000 </r>
       <r>   -0.3283    1.0000 </r>
       <r>    2.3612    1.0000 </r>
       <r>    2.3612    1.0000 </r>
       <r>    2.3612    1.0000 </r>
       <r>    3.1239    1.0000 </r>
       <r>    3.6705    1.0000 </r>
       <r>    3.6705    1.0000 </r>
       <r>    3.6705    1.0000 </r>
       <r>    5.5761    1.0000 </r>
       <r>    5.5761    1.0000 </r>
       <r>    7.3527   -0.0000 </r>
       <r>    7.3527   -0.0000 </r>
       <r>    7.3527   -0.0000 </r>
       <r>    8.5056   -0.0000 </r>
       <r>    9.5584   -0.0000 </r>
       <r>    9.5584   -0.0000 </r>
       <r>    9.5628   -0.0000 </r>
       <r>    9.5696   -0.0000 </r>
      </set>
      <set comment="kpoint 8">
       <r>   -4.9682    1.0000 </r>
       <r>   -4.1267    1.0000 </r>
       <r>   -2.8460    1.0000 </r>
       <r>   -2.8460    1.0000 </r>
       <r>   -0.6661    1.0000 </r>
       <r>   -0.6661    1.0000 </r>
       <r>    0.7968    1.0000 </r>
       <r>    1.8995    1.0000 </r>
       <r>    2.2190    1.0000 </r>
       <r>    2.2190    1.0000 </r>
       <r>    3.4793    1.0000 </r>
       <r>    3.6180    1.0000 </r>
       <r>    3.6180    1.0000 </r>
       <r>    4.1142    1.0000 </r>
       <r>    4.7994    1.0000 </r>
       <r>    4.8776    1.0000 </r>
       <r>    7.9263   -0.0000 </r>
       <r>    8.5043   -0.0000 </r>
       <r>    8.5043   -0.0000 </r>
       <r>    8.5961   -0.0000 </r>
       <r>    9.6493   -0.0000 </r>
       <r>   10.2770   -0.0000 </r>
       <r>   10.5180   -0.0000 </r>
       <r>   10.5862   -0.0000 </r>
      </set>
      <set comment="kpoint 9">
       <r>   -4.4836    1.0000 </r>
       <r>   -3.7278    1.0000 </r>
       <r>   -3.7278    1.0000 </r>
       <r>   -3.2040    1.0000 </r>
       <r>   -0.6534    1.0000 </r>
       <r>   -0.0807    1.0000 </r>
       <r>   -0.0807    1.0000 </r>
       <r>    0.7885    1.0000 </r>
       <r>    2.6449    1.0000 </r>
       <r>    3.1978    1.0000 </r>
       <r>    3.1978    1.0000 </r>
       <r>    4.0752    1.0000 </r>
       <r>    4.4091    1.0000 </r>
       <r>    4.4237    1.0000 </r>
       <r>    4.4237    1.0000 </r>
       <r>    5.2414    1.0000 </r>
       <r>    8.2262   -0.0000 </r>
       <r>    8.7030   -0.0000 </r>
       <r>    8.9723   -0.0000 </r>
       <r>    8.9723   -0.0000 </r>
       <r>    9.4749   -0.0000 </r>
       <r>    9.4749   -0.0000 </r>
       <r>    9.8001   -0.0000 </r>
       <r>    9.8832   -0.0000 </r>
      </set>
      <set comment="kpoint 10">
       <r>   -4.0768    1.0000 </r>
       <r>   -3.5483    1.0000 </r>
       <r>   -3.5483    1.0000 </r>
       <r>   -3.5483    1.0000 </r>
       <r>   -0.7981    1.0000 </r>
       <r>   -0.7981    1.0000 </r>
       <r>   -0.7981    1.0000 </r>
       <r>   -0.2286    1.0000 </r>
       <r>    4.1556    1.0000 </r>
       <r>    4.1556    1.0000 </r>
       <r>    4.1556    1.0000 </r>
       <r>    4.6880    1.0000 </r>
       <r>    4.6880    1.0000 </r>
       <r>    4.6880    1.0000 </r>
       <r>    5.0186    1.0000 </r>
       <r>    5.0186    1.0000 </r>
       <r>    7.9135   -0.0000 </r>
       <r>    8.4073   -0.0000 </r>
       <r>    8.4073   -0.0000 </r>
       <r>    8.4073   -0.0000 </r>
       <r>    9.4990   -0.0000 </r>
       <r>    9.4990   -0.0000 </r>
       <r>    9.5103   -0.0000 </r>
       <r>    9.5791   -0.0000 </r>
      </set>
     </set>
    </set>
   </array>
  </eigenvalues>
  <separator name="orbital magnetization" >
   <v name="MAGDIPOLOUT">      0.00000000      0.00000000      0.00000000</v>
  </separator>
  <dos>
   <i name="efermi">      6.28009739 </i>
   <total>
    <array>
     <dimension dim="1">gridpoints</dimension>
     <dimension dim="2">spin</dimension>
     <field>energy</field>
     <field>total</field>
     <field>integrated</field>
     <set>
      <set comment="spin 1">
       <r>    -8.0202     0.0000     0.0000 </r>
       <r>    -7.9511     0.0000     0.0000 </r>
       <r>    -7.8820     0.0000     0.0000 </r>
       <r>    -7.8129     0.0000     0.0000 </r>
       <r>    -7.7437     0.0000     0.0000 </r>
       <r>    -7.6746    -0.0000    -0.0000 </r>
       <r>    -7.6055    -0.0000    -0.0000 </r>
       <r>    -7.5364    -0.0000    -0.0000 </r>
       <r>    -7.4673    -0.0000    -0.0000 </r>
       <r>    -7.3981    -0.0000    -0.0000 </r>
       <r>    -7.3290    -0.0000    -0.0000 </r>
       <r>    -7.2599    -0.0000    -0.0000 </r>
       <r>    -7.1908    -0.0000    -0.0000 </r>
       <r>    -7.1216    -0.0000    -0.0000 </r>
       <r>    -7.0525    -0.0000    -0.0000 </r>
       <r>    -6.9834    -0.0000    -0.0000 </r>
       <r>    -6.9143    -0.0000    -0.0000 </r>
       <r>    -6.8452    -0.0000    -0.0000 </r>
       <r>    -6.7760    -0.0000    -0.0000 </r>
       <r>    -6.7069    -0.0000    -0.0000 </r>
       <r>    -6.6378    -0.0000    -0.0000 </r>
       <r>    -6.5687    -0.0001    -0.0000 </r>
       <r>    -6.4995    -0.0004    -0.0000 </r>
       <r>    -6.4304    -0.0013    -0.0001 </r>
       <r>    -6.3613    -0.0035    -0.0004 </r>
       <r>    -6.2922    -0.0069    -0.0008 </r>
       <r>    -6.2231    -0.0092    -0.0015 </r>
       <r>    -6.1539    -0.0046    -0.0018 </r>
       <r>    -6.0848     0.0174    -0.0006 </r>
       <r>    -6.0157     0.0739     0.0045 </r>
       <r>    -5.9466     0.1833     0.0172 </r>
       <r>    -5.8774     0.3503     0.0414 </r>
       <r>    -5.8083     0.5593     0.0801 </r>
       <r>    -5.7392     0.7772     0.1338 </r>
       <r>    -5.6701     0.9438     0.1990 </r>
       <r>    -5.6009     0.9894     0.2674 </r>
       <r>    -5.5318     0.8974     0.3294 </r>
       <r>    -5.4627     0.7270     0.3797 </r>
       <r>    -5.3936     0.5833     0.4200 </r>
       <r>    -5.3245     0.5987     0.4614 </r>
       <r>    -5.2553     0.8871     0.5227 </r>
       <r>    -5.1862     1.4255     0.6213 </r>
       <r>    -5.1171     2.0033     0.7597 </r>
       <r>    -5.0480     2.3458     0.9219 </r>
       <r>    -4.9788     2.2693     1.0787 </r>
       <r>    -4.9097     1.7561     1.2001 </r>
       <r>    -4.8406     1.0227     1.2708 </r>
       <r>    -4.7715     0.4782     1.3039 </r>
       <r>    -4.7024     0.4464     1.3347 </r>
       <r>    -4.6332     0.9183     1.3982 </r>
       <r>    -4.5641     1.5986     1.5087 </r>
       <r>    -4.4950     2.1270     1.6557 </r>
       <r>    -4.4259     2.3156     1.8158 </r>
       <r>    -4.3567     2.2958     1.9745 </r>
       <r>    -4.2876     2.3632     2.1378 </r>
       <r>    -4.2185     2.5920     2.3170 </r>
       <r>    -4.1494     2.6948     2.5033 </r>
       <r>    -4.0803     2.3471     2.6655 </r>
       <r>    -4.0111     1.6740     2.7812 </r>
       <r>    -3.9420     1.3439     2.8741 </r>
       <r>    -3.8729     1.9646     3.0099 </r>
       <r>    -3.8038     3.3133     3.2389 </r>
       <r>    -3.7346     4.4029     3.5433 </r>
       <r>    -3.6655     4.4512     3.8509 </r>
       <r>    -3.5964     3.5580     4.0969 </r>
       <r>    -3.5273     2.3233     4.2575 </r>
       <r>    -3.4582     1.2216     4.3419 </r>
       <r>    -3.3890     0.6001     4.3834 </r>
       <r>    -3.3199     0.8268     4.4405 </r>
       <r>    -3.2508     1.9702     4.5767 </r>
       <r>    -3.1817     3.4661     4.8163 </r>
       <r>    -3.1125     4.4562     5.1243 </r>
       <r>    -3.0434     4.5862     5.4413 </r>
       <r>    -2.9743     4.3452     5.7417 </r>
       <r>    -2.9052     4.4103     6.0465 </r>
       <r>    -2.8361     4.6945     6.3710 </r>
       <r>    -2.7669     4.4061     6.6756 </r>
       <r>    -2.6978     3.1371     6.8924 </r>
       <r>    -2.6287     1.4619     6.9935 </r>
       <r>    -2.5596     0.3095     7.0149 </r>
       <r>    -2.4904     0.1181     7.0230 </r>
       <r>    -2.4213     0.6582     7.0685 </r>
       <r>    -2.3522     1.3112     7.1592 </r>
       <r>    -2.2831     1.4975     7.2627 </r>
       <r>    -2.2140     1.1171     7.3399 </r>
       <r>    -2.1448     0.5920     7.3808 </r>
       <r>    -2.0757     0.3666     7.4062 </r>
       <r>    -2.0066     0.4625     7.4381 </r>
       <r>    -1.9375     0.6340     7.4820 </r>
       <r>    -1.8683     0.8389     7.5399 </r>
       <r>    -1.7992     1.3196     7.6312 </r>
       <r>    -1.7301     2.1439     7.7793 </r>
       <r>    -1.6610     2.8852     7.9788 </r>
       <r>    -1.5919     2.9922     8.1856 </r>
       <r>    -1.5227     2.4064     8.3519 </r>
       <r>    -1.4536     1.6039     8.4628 </r>
       <r>    -1.3845     1.0263     8.5338 </r>
       <r>    -1.3154     0.6815     8.5809 </r>
       <r>    -1.2462     0.3686     8.6063 </r>
       <r>    -1.1771     0.0747     8.6115 </r>
       <r>    -1.1080     0.0131     8.6124 </r>
       <r>    -1.0389     0.3746     8.6383 </r>
       <r>    -0.9698     1.1319     8.7165 </r>
       <r>    -0.9006     2.1063     8.8621 </r>
       <r>    -0.8315     3.2147     9.0844 </r>
       <r>    -0.7624     4.4396     9.3912 </r>
       <r>    -0.6933     5.4237     9.7661 </r>
       <r>    -0.6241     5.5094    10.1470 </r>
       <r>    -0.5550     4.5552    10.4618 </r>
       <r>    -0.4859     3.3091    10.6905 </r>
       <r>    -0.4168     2.6276    10.8722 </r>
       <r>    -0.3477     2.7471    11.0621 </r>
       <r>    -0.2785     3.5010    11.3041 </r>
       <r>    -0.2094     4.6498    11.6255 </r>
       <r>    -0.1403     5.6671    12.0172 </r>
       <r>    -0.0712     5.7179    12.4124 </r>
       <r>    -0.0020     4.4018    12.7167 </r>
       <r>     0.0671     2.3460    12.8788 </r>
       <r>     0.1362     0.6403    12.9231 </r>
       <r>     0.2053    -0.1849    12.9103 </r>
       <r>     0.2745    -0.3505    12.8861 </r>
       <r>     0.3436    -0.2453    12.8691 </r>
       <r>     0.4127     0.0128    12.8700 </r>
       <r>     0.4818     0.4910    12.9040 </r>
       <r>     0.5509     1.1730    12.9850 </r>
       <r>     0.6201     1.9422    13.1193 </r>
       <r>     0.6892     2.7231    13.3075 </r>
       <r>     0.7583     3.3455    13.5388 </r>
       <r>     0.8274     3.3799    13.7724 </r>
       <r>     0.8966     2.5587    13.9493 </r>
       <r>     0.9657     1.2721    14.0372 </r>
       <r>     1.0348     0.2307    14.0531 </r>
       <r>     1.1039    -0.2118    14.0385 </r>
       <r>     1.1730    -0.1210    14.0301 </r>
       <r>     1.2422     0.3448    14.0540 </r>
       <r>     1.3113     0.9683    14.1209 </r>
       <r>     1.3804     1.3834    14.2165 </r>
       <r>     1.4495     1.3838    14.3122 </r>
       <r>     1.5187     1.3097    14.4027 </r>
       <r>     1.5878     1.7188    14.5215 </r>
       <r>     1.6569     2.6038    14.7015 </r>
       <r>     1.7260     3.3394    14.9323 </r>
       <r>     1.7951     3.5008    15.1743 </r>
       <r>     1.8643     3.3036    15.4027 </r>
       <r>     1.9334     3.1237    15.6186 </r>
       <r>     2.0025     3.0886    15.8321 </r>
       <r>     2.0716     3.3433    16.0632 </r>
       <r>     2.1408     4.1889    16.3527 </r>
       <r>     2.2099     5.5421    16.7358 </r>
       <r>     2.2790     6.5642    17.1895 </r>
       <r>     2.3481     6.2939    17.6246 </r>
       <r>     2.4172     4.6498    17.9460 </r>
       <r>     2.4864     2.6152    18.1268 </r>
       <r>     2.5555     1.4355    18.2260 </r>
       <r>     2.6246     1.6894    18.3428 </r>
       <r>     2.6937     3.0085    18.5507 </r>
       <r>     2.7629     4.3936    18.8544 </r>
       <r>     2.8320     4.8302    19.1883 </r>
       <r>     2.9011     4.1302    19.4738 </r>
       <r>     2.9702     3.3297    19.7039 </r>
       <r>     3.0393     3.7670    19.9643 </r>
       <r>     3.1085     5.5978    20.3512 </r>
       <r>     3.1776     7.5465    20.8729 </r>
       <r>     3.2467     8.2044    21.4400 </r>
       <r>     3.3158     7.3766    21.9499 </r>
       <r>     3.3850     6.0825    22.3703 </r>
       <r>     3.4541     5.4392    22.7463 </r>
       <r>     3.5232     5.7007    23.1403 </r>
       <r>     3.5923     6.1523    23.5656 </r>
       <r>     3.6614     5.7688    23.9643 </r>
       <r>     3.7306     4.2332    24.2570 </r>
       <r>     3.7997     2.4257    24.4246 </r>
       <r>     3.8688     1.7383    24.5448 </r>
       <r>     3.9379     2.8725    24.7433 </r>
       <r>     4.0071     5.2100    25.1035 </r>
       <r>     4.0762     7.1893    25.6004 </r>
       <r>     4.1453     7.5829    26.1246 </r>
       <r>     4.2144     6.6966    26.5875 </r>
       <r>     4.2835     5.9562    26.9992 </r>
       <r>     4.3527     6.0746    27.4190 </r>
       <r>     4.4218     6.2123    27.8485 </r>
       <r>     4.4909     5.3587    28.2189 </r>
       <r>     4.5600     3.8611    28.4858 </r>
       <r>     4.6292     2.9051    28.6866 </r>
       <r>     4.6983     2.9862    28.8930 </r>
       <r>     4.7674     3.5865    29.1409 </r>
       <r>     4.8365     4.0000    29.4174 </r>
       <r>     4.9056     3.9176    29.6882 </r>
       <r>     4.9748     3.4518    29.9268 </r>
       <r>     5.0439     3.0223    30.1357 </r>
       <r>     5.1130     3.0841    30.3488 </r>
       <r>     5.1821     3.6140    30.5986 </r>
       <r>     5.2513     3.9379    30.8708 </r>
       <r>     5.3204     3.4284    31.1078 </r>
       <r>     5.3895     2.3349    31.2692 </r>
       <r>     5.4586     1.5379    31.3755 </r>
       <r>     5.5278     1.4692    31.4771 </r>
       <r>     5.5969     1.6600    31.5918 </r>
       <r>     5.6660     1.4581    31.6926 </r>
       <r>     5.7351     0.8394    31.7506 </r>
       <r>     5.8042     0.3010    31.7714 </r>
       <r>     5.8734     0.2101    31.7860 </r>
       <r>     5.9425     0.4804    31.8192 </r>
       <r>     6.0116     0.7620    31.8718 </r>
       <r>     6.0807     0.7973    31.9269 </r>
       <r>     6.1499     0.5983    31.9683 </r>
       <r>     6.2190     0.3348    31.9914 </r>
       <r>     6.2881     0.1313    32.0005 </r>
       <r>     6.3572     0.0109    32.0013 </r>
       <r>     6.4263    -0.0421    31.9984 </r>
       <r>     6.4955    -0.0252    31.9966 </r>
       <r>     6.5646     0.0851    32.0025 </r>
       <r>     6.6337     0.2890    32.0225 </r>
       <r>     6.7028     0.5159    32.0581 </r>
       <r>     6.7720     0.6556    32.1035 </r>
       <r>     6.8411     0.6623    32.1492 </r>
       <r>     6.9102     0.6086    32.1913 </r>
       <r>     6.9793     0.6100    32.2335 </r>
       <r>     7.0484     0.7088    32.2825 </r>
       <r>     7.1176     0.8654    32.3423 </r>
       <r>     7.1867     1.0688    32.4162 </r>
       <r>     7.2558     1.3669    32.5106 </r>
       <r>     7.3249     1.6982    32.6280 </r>
       <r>     7.3941     1.8549    32.7562 </r>
       <r>     7.4632     1.8394    32.8834 </r>
       <r>     7.5323     2.0239    33.0233 </r>
       <r>     7.6014     2.5926    33.2025 </r>
       <r>     7.6705     3.1190    33.4181 </r>
       <r>     7.7397     3.1898    33.6386 </r>
       <r>     7.8088     3.1158    33.8539 </r>
       <r>     7.8779     3.3911    34.0883 </r>
       <r>     7.9470     3.7758    34.3493 </r>
       <r>     8.0162     3.6978    34.6049 </r>
       <r>     8.0853     3.3165    34.8342 </r>
       <r>     8.1544     3.3555    35.0661 </r>
       <r>     8.2235     4.0391    35.3453 </r>
       <r>     8.2926     4.9715    35.6889 </r>
       <r>     8.3618     5.9598    36.1009 </r>
       <r>     8.4309     7.1370    36.5942 </r>
       <r>     8.5000     8.1766    37.1594 </r>
       <r>     8.5691     8.1780    37.7247 </r>
       <r>     8.6383     6.6914    38.1872 </r>
       <r>     8.7074     4.3774    38.4898 </r>
       <r>     8.7765     2.4412    38.6585 </r>
       <r>     8.8456     1.7196    38.7774 </r>
       <r>     8.9147     2.2090    38.9301 </r>
       <r>     8.9839     3.1617    39.1486 </r>
       <r>     9.0530     3.7782    39.4098 </r>
       <r>     9.1221     3.8896    39.6787 </r>
       <r>     9.1912     3.8341    39.9437 </r>
       <r>     9.2604     3.9796    40.2188 </r>
       <r>     9.3295     4.6972    40.5434 </r>
       <r>     9.3986     6.3650    40.9834 </r>
       <r>     9.4677     8.7894    41.5909 </r>
       <r>     9.5368    10.7555    42.3344 </r>
       <r>     9.6060    10.8317    43.0831 </r>
       <r>     9.6751     8.9474    43.7016 </r>
       <r>     9.7442     6.7227    44.1663 </r>
       <r>     9.8133     5.7392    44.5630 </r>
       <r>     9.8825     5.8536    44.9676 </r>
       <r>     9.9516     5.7691    45.3663 </r>
       <r>    10.0207     4.8339    45.7005 </r>
       <r>    10.0898     3.5765    45.9477 </r>
       <r>    10.1589     2.7336    46.1367 </r>
       <r>    10.2281     2.3932    46.3021 </r>
       <r>    10.2972     2.1785    46.4527 </r>
       <r>    10.3663     1.9997    46.5909 </r>
       <r>    10.4354     2.2644    46.7474 </r>
       <r>    10.5046     3.1589    46.9658 </r>
       <r>    10.5737     4.0934    47.2487 </r>
       <r>    10.6428     4.2587    47.5431 </r>
       <r>    10.7119     3.4757    47.7833 </r>
       <r>    10.7810     2.2078    47.9359 </r>
       <r>    10.8502     1.0214    48.0065 </r>
       <r>    10.9193     0.2437    48.0234 </r>
       <r>    10.9884    -0.0876    48.0173 </r>
       <r>    11.0575    -0.1317    48.0082 </r>
       <r>    11.1267    -0.0780    48.0028 </r>
       <r>    11.1958    -0.0303    48.0007 </r>
       <r>    11.2649    -0.0085    48.0001 </r>
       <r>    11.3340    -0.0018    48.0000 </r>
       <r>    11.4032    -0.0003    48.0000 </r>
       <r>    11.4723    -0.0000    48.0000 </r>
       <r>    11.5414    -0.0000    48.0000 </r>
       <r>    11.6105    -0.0000    48.0000 </r>
       <r>    11.6796    -0.0000    48.0000 </r>
       <r>    11.7488    -0.0000    48.0000 </r>
       <r>    11.8179    -0.0000    48.0000 </r>
       <r>    11.8870    -0.0000    48.0000 </r>
       <r>    11.9561    -0.0000    48.0000 </r>
       <r>    12.0253     0.0000    48.0000 </r>
       <r>    12.0944     0.0000    48.0000 </r>
       <r>    12.1635     0.0000    48.0000 </r>
       <r>    12.2326     0.0000    48.0000 </r>
       <r>    12.3017     0.0000    48.0000 </r>
       <r>    12.3709     0.0000    48.0000 </r>
       <r>    12.4400     0.0000    48.0000 </r>
       <r>    12.5091     0.0000    48.0000 </r>
       <r>    12.5782     0.0000    48.0000 </r>
       <r>    12.6474     0.0000    48.0000 </r>
       <r>    12.7165     0.0000    48.0000 </r>
      </set>
     </set>
    </array>
   </total>
  </dos>
 </calculation>
 <structure name="finalpos" >
  <crystal>
   <varray name="basis" >
    <v>       5.37012981       0.00000000       0.00000000 </v>
    <v>       0.00000000       5.37012981       0.00000000 </v>
    <v>       0.00000000       0.00000000       5.37012981 </v>
   </varray>
   <i name="volume">    154.86538309 </i>
   <varray name="rec_basis" >
    <v>       0.18621524      -0.00000000       0.00000000 </v>
    <v>       0.00000000       0.18621524       0.00000000 </v>
    <v>      -0.00000000      -0.00000000       0.18621524 </v>
   </varray>
  </crystal>
  <varray name="positions" >
   <v>       0.75000000       0.75000000       0.25000000 </v>
   <v>       0.00000000       0.50000000       0.50000000 </v>
   <v>       0.75000000       0.25000000       0.75000000 </v>
   <v>       0.00000000       0.00000000       0.00000000 </v>
   <v>       0.25000000       0.75000000       0.75000000 </v>
   <v>       0.50000000       0.50000000       0.00000000 </v>
   <v>       0.25000000       0.25000000       0.25000000 </v>
   <v>       0.50000000       0.00000000       0.50000000 </v>
  </varray>
 </structure>
</modeling>
