<?xml version="1.0" encoding="ISO-8859-1"?>
<modeling>
 <generator>
  <i name="program" type="string">vasp </i>
  <i name="version" type="string">6.2.1  </i>
  <i name="subversion" type="string">16May21 (build Aug 15 2022 14:47:30) complex                          parallel </i>
  <i name="platform" type="string">LinuxGNU </i>
  <i name="date" type="string">2025 12 30 </i>
  <i name="time" type="string">16:12:29 </i>
 </generator>
 <incar>
  <i type="string" name="PREC">Accurate</i>
  <i type="string" name="ALGO">Fast</i>
  <i type="int" name="NELM">   100</i>
  <i name="EDIFF">      0.00000100</i>
  <i type="int" name="NSW">     0</i>
  <i name="ENCUT">    520.00000000</i>
  <i type="logical" name="LREAL"> F  </i>
  <i type="int" name="ISMEAR">     1</i>
  <i type="logical" name="LWAVE"> F  </i>
  <i type="logical" name="LCHARG"> F  </i>
  <i type="logical" name="LASPH"> T  </i>
 </incar>
 <primitive_cell>
  <structure name="primitive_cell" >
   <crystal>
    <varray name="basis" >
     <v>       2.73987722      -2.73987722       0.00000000 </v>
     <v>       2.73987722       0.00000000       2.73987722 </v>
     <v>       0.00000000      -2.73987722       2.73987722 </v>
    </varray>
    <i name="volume">     41.13611738 </i>
    <varray name="rec_basis" >
     <v>       0.18248993      -0.18248993      -0.18248993 </v>
     <v>       0.18248993       0.18248993       0.18248993 </v>
     <v>      -0.18248993      -0.18248993       0.18248993 </v>
    </varray>
   </crystal>
   <varray name="positions" >
    <v>       0.75000000       0.75000000       0.75000000 </v>
    <v>       0.00000000       0.00000000       0.00000000 </v>
   </varray>
  </structure>
  <varray name="primitive_index" >
   <v type="int" >        1 </v>
   <v type="int" >        2 </v>
  </varray>
 </primitive_cell>
 <kpoints>
  <generation param="Gamma">
   <v type="int" name="divisions">       5        5        5 </v>
   <v name="usershift">      0.00000000       0.00000000       0.00000000 </v>
   <v name="genvec1">      0.20000000       0.00000000       0.00000000 </v>
   <v name="genvec2">      0.00000000       0.20000000       0.00000000 </v>
   <v name="genvec3">      0.00000000      -0.00000000       0.20000000 </v>
   <v name="shift">      0.00000000       0.00000000       0.00000000 </v>
  </generation>
  <varray name="kpointlist" >
   <v>       0.00000000       0.00000000       0.00000000 </v>
   <v>       0.20000000       0.00000000       0.00000000 </v>
   <v>       0.40000000       0.00000000       0.00000000 </v>
   <v>       0.20000000       0.20000000       0.00000000 </v>
   <v>       0.40000000       0.20000000       0.00000000 </v>
   <v>       0.40000000       0.40000000       0.00000000 </v>
   <v>       0.20000000       0.20000000       0.20000000 </v>
   <v>       0.40000000       0.20000000       0.20000000 </v>
   <v>       0.40000000       0.40000000       0.20000000 </v>
   <v>       0.40000000       0.40000000       0.40000000 </v>
  </varray>
  <varray name="weights" >
   <v>       0.00800000 </v>
   <v>       0.04800000 </v>
   <v>       0.04800000 </v>
   <v>       0.09600000 </v>
   <v>       0.19200000 </v>
   <v>       0.09600000 </v>
   <v>       0.06400000 </v>
   <v>       0.19200000 </v>
   <v>       0.19200000 </v>
   <v>       0.06400000 </v>
  </varray>
 </kpoints>
 <parameters>
  <separator name="general" >
   <i type="string" name="SYSTEM">unknown system</i>
   <i type="logical" name="LCOMPAT"> F  </i>
  </separator>
  <separator name="electronic" >
   <i type="string" name="PREC">accura</i>
   <i name="ENMAX">    520.00000000</i>
   <i name="ENAUG">    322.06900000</i>
   <i name="EDIFF">      0.00000100</i>
   <i type="int" name="IALGO">    68</i>
   <i type="int" name="IWAVPR">    10</i>
   <i type="int" name="NBANDS">    24</i>
   <i type="int" name="NBANDSLOW">    -1</i>
   <i type="int" name="NBANDSHIGH">    -1</i>
   <i name="NELECT">     32.00000000</i>
   <i type="int" name="TURBO">     0</i>
   <i type="int" name="IRESTART">     0</i>
   <i type="int" name="NREBOOT">     0</i>
   <i type="int" name="NMIN">     0</i>
   <i name="EREF">      0.00000000</i>
   <separator name="electronic smearing" >
    <i type="int" name="ISMEAR">     1</i>
    <i name="SIGMA">      0.20000000</i>
    <i name="KSPACING">      0.50000000</i>
    <i type="logical" name="KGAMMA"> T  </i>
    <i type="logical" name="KBLOWUP"> T  </i>
   </separator>
   <separator name="electronic projectors" >
    <i type="logical" name="LREAL"> F  </i>
    <v name="ROPT">      0.00000000</v>
    <i type="int" name="LMAXPAW">  -100</i>
    <i type="int" name="LMAXMIX">     2</i>
    <i type="logical" name="NLSPLINE"> F  </i>
   </separator>
   <separator name="electronic startup" >
    <i type="int" name="ISTART">     0</i>
    <i type="int" name="ICHARG">     2</i>
    <i type="int" name="INIWAV">     1</i>
   </separator>
   <separator name="electronic spin" >
    <i type="int" name="ISPIN">     1</i>
    <i type="logical" name="LNONCOLLINEAR"> F  </i>
    <v name="MAGMOM">      1.00000000      1.00000000      1.00000000      1.00000000      1.00000000      1.00000000      1.00000000      1.00000000</v>
    <i name="NUPDOWN">     -1.00000000</i>
    <i type="logical" name="LSORBIT"> F  </i>
    <v name="SAXIS">      0.00000000      0.00000000      1.00000000</v>
    <i type="logical" name="LSPIRAL"> F  </i>
    <v name="QSPIRAL">      0.00000000      0.00000000      0.00000000</v>
    <i type="logical" name="LZEROZ"> F  </i>
   </separator>
   <separator name="electronic exchange-correlation" >
    <i type="logical" name="LASPH"> T  </i>
    <i type="logical" name="LMETAGGA"> F  </i>
   </separator>
   <separator name="electronic convergence" >
    <i type="int" name="NELM">   100</i>
    <i type="int" name="NELMDL">     0</i>
    <i type="int" name="NELMIN">     2</i>
    <i name="ENINI">    520.00000000</i>
    <separator name="electronic convergence detail" >
     <i type="logical" name="LDIAG"> T  </i>
     <i type="logical" name="LSUBROT"> F  </i>
     <i name="WEIMIN">      0.00000000</i>
     <i name="EBREAK">      0.00000001</i>
     <i name="DEPER">      0.30000000</i>
     <i type="int" name="NRMM">     4</i>
     <i name="TIME">      0.40000000</i>
    </separator>
   </separator>
   <separator name="electronic mixer" >
    <i name="AMIX">      0.40000000</i>
    <i name="BMIX">      1.00000000</i>
    <i name="AMIN">      0.10000000</i>
    <i name="AMIX_MAG">      1.60000000</i>
    <i name="BMIX_MAG">      1.00000000</i>
    <separator name="electronic mixer details" >
     <i type="int" name="IMIX">     4</i>
     <i type="logical" name="MIXFIRST"> F  </i>
     <i type="int" name="MAXMIX">   -45</i>
     <i name="WC">    100.00000000</i>
     <i type="int" name="INIMIX">     1</i>
     <i type="int" name="MIXPRE">     1</i>
     <i type="int" name="MREMOVE">     5</i>
    </separator>
   </separator>
   <separator name="electronic dipolcorrection" >
    <i type="logical" name="LDIPOL"> F  </i>
    <i type="logical" name="LMONO"> F  </i>
    <i type="int" name="IDIPOL">     0</i>
    <i name="EPSILON">      1.00000000</i>
    <v name="DIPOL">   -100.00000000   -100.00000000   -100.00000000</v>
    <i name="EFIELD">      0.00000000</i>
   </separator>
  </separator>
  <separator name="grids" >
   <i type="int" name="NGX">    42</i>
   <i type="int" name="NGY">    42</i>
   <i type="int" name="NGZ">    42</i>
   <i type="int" name="NGXF">    84</i>
   <i type="int" name="NGYF">    84</i>
   <i type="int" name="NGZF">    84</i>
   <i type="logical" name="ADDGRID"> F  </i>
  </separator>
  <separator name="ionic" >
   <i type="int" name="NSW">     0</i>
   <i type="int" name="IBRION">    -1</i>
   <i type="int" name="MDALGO">     0</i>
   <i type="int" name="ISIF">     2</i>
   <i name="PSTRESS">      0.00000000</i>
   <i name="EDIFFG">      0.00001000</i>
   <i type="int" name="NFREE">     0</i>
   <i name="POTIM">      0.50000000</i>
   <i name="SMASS">     -3.00000000</i>
   <i name="SCALEE">      1.00000000</i>
  </separator>
  <separator name="ionic md" >
   <i name="TEBEG">      0.00010000</i>
   <i name="TEEND">      0.00010000</i>
   <i type="int" name="NBLOCK">     1</i>
   <i type="int" name="KBLOCK">     1</i>
   <i type="int" name="NPACO">   256</i>
   <i name="APACO">     16.00000000</i>
  </separator>
  <separator name="symmetry" >
   <i type="int" name="ISYM">     2</i>
   <i name="SYMPREC">      0.00001000</i>
  </separator>
  <separator name="dos" >
   <i type="int" name="LORBIT">     0</i>
   <v name="RWIGS">     -1.00000000</v>
   <i type="int" name="NEDOS">   301</i>
   <i name="EMIN">     10.00000000</i>
   <i name="EMAX">    -10.00000000</i>
   <i name="EFERMI">      0.00000000</i>
  </separator>
  <separator name="writing" >
   <i type="int" name="NWRITE">     2</i>
   <i type="logical" name="LWAVE"> F  </i>
   <i type="logical" name="LDOWNSAMPLE"> F  </i>
   <i type="logical" name="LCHARG"> F  </i>
   <i type="logical" name="LPARD"> F  </i>
   <i type="logical" name="LVTOT"> F  </i>
   <i type="logical" name="LVHAR"> F  </i>
   <i type="logical" name="LELF"> F  </i>
   <i type="logical" name="LOPTICS"> F  </i>
   <v name="STM">      0.00000000      0.00000000      0.00000000      0.00000000      0.00000000      0.00000000      0.00000000</v>
  </separator>
  <separator name="performance" >
   <i type="int" name="NPAR">     4</i>
   <i type="int" name="NSIM">     4</i>
   <i type="int" name="NBLK">    -1</i>
   <i type="logical" name="LPLANE"> T  </i>
   <i type="logical" name="LSCALAPACK"> T  </i>
   <i type="logical" name="LSCAAWARE"> F  </i>
   <i type="logical" name="LSCALU"> F  </i>
   <i type="logical" name="LASYNC"> F  </i>
   <i type="logical" name="LORBITALREAL"> F  </i>
  </separator>
  <separator name="miscellaneous" >
   <i type="int" name="IDIOT">     3</i>
   <i type="int" name="PHON_NSTRUCT">    -1</i>
   <i type="logical" name="LMUSIC"> F  </i>
   <v name="POMASS">     28.08500000</v>
   <v name="DARWINR">      0.00000000</v>
   <v name="DARWINV">      1.00000000</v>
   <i type="logical" name="LCORR"> T  </i>
  </separator>
  <i type="logical" name="GGA_COMPAT"> T  </i>
  <i type="logical" name="LBERRY"> F  </i>
  <i type="int" name="ICORELEVEL">     0</i>
  <i type="logical" name="LDAU"> F  </i>
  <i type="int" name="I_CONSTRAINED_M">     0</i>
  <separator name="electronic exchange-correlation" >
   <i type="string" name="GGA">--</i>
   <i type="int" name="VOSKOWN">     0</i>
   <i type="logical" name="LHFCALC"> F  </i>
   <i type="string" name="PRECFOCK"></i>
   <i type="logical" name="LSYMGRAD"> F  </i>
   <i type="logical" name="LHFONE"> F  </i>
   <i type="logical" name="LRHFCALC"> F  </i>
   <i type="logical" name="LTHOMAS"> F  </i>
   <i type="logical" name="LMODELHF"> F  </i>
   <i type="logical" name="LFOCKACE"> F  </i>
   <i name="ENCUT4O">     -1.00000000</i>
   <i type="int" name="EXXOEP">     0</i>
   <i type="int" name="FOURORBIT">     0</i>
   <i name="AEXX">      0.00000000</i>
   <i name="HFALPHA">      0.00000000</i>
   <i name="MCALPHA">      0.00000000</i>
   <i name="ALDAX">      1.00000000</i>
   <i name="AGGAX">      1.00000000</i>
   <i name="ALDAC">      1.00000000</i>
   <i name="AGGAC">      1.00000000</i>
   <i type="int" name="NKREDX">     1</i>
   <i type="int" name="NKREDY">     1</i>
   <i type="int" name="NKREDZ">     1</i>
   <i type="logical" name="SHIFTRED"> F  </i>
   <i type="logical" name="ODDONLY"> F  </i>
   <i type="logical" name="EVENONLY"> F  </i>
   <i type="int" name="LMAXFOCK">     0</i>
   <i type="int" name="NMAXFOCKAE">     0</i>
   <i type="logical" name="LFOCKAEDFT"> F  </i>
   <i name="HFSCREEN">      0.00000000</i>
   <i name="HFSCREENC">      0.00000000</i>
   <i type="int" name="NBANDSGWLOW">     0</i>
  </separator>
  <separator name="vdW DFT" >
   <i type="logical" name="LUSE_VDW"> F  </i>
   <i name="Zab_VDW">     -0.84910000</i>
   <i name="PARAM1">      0.12340000</i>
   <i name="PARAM2">      1.00000000</i>
   <i name="PARAM3">      0.00000000</i>
  </separator>
  <separator name="model GW" >
   <i type="int" name="MODEL_GW">     0</i>
   <i name="MODEL_EPS0">     12.34083522</i>
   <i name="MODEL_ALPHA">      1.00000000</i>
  </separator>
  <separator name="linear response parameters" >
   <i type="logical" name="LEPSILON"> F  </i>
   <i type="logical" name="LRPA"> F  </i>
   <i type="logical" name="LNABLA"> F  </i>
   <i type="logical" name="LVEL"> F  </i>
   <i type="int" name="KINTER">     0</i>
   <i name="CSHIFT">      0.10000000</i>
   <i name="OMEGAMAX">     -1.00000000</i>
   <i name="DEG_THRESHOLD">      0.00200000</i>
   <i name="RTIME">     -0.10000000</i>
   <i name="WPLASMAI">      0.00000000</i>
   <v name="DFIELD">      0.00000000      0.00000000      0.00000000</v>
   <v name="WPLASMA">      0.00000000      0.00000000      0.00000000      0.00000000      0.00000000      0.00000000      0.00000000      0.00000000      0.00000000</v>
  </separator>
  <separator name="orbital magnetization" >
   <i type="logical" name="NUCIND"> F  </i>
   <v name="MAGPOS">      0.00000000      0.00000000      0.00000000</v>
   <i type="logical" name="LNICSALL"> T  </i>
   <i type="logical" name="ORBITALMAG"> F  </i>
   <i type="logical" name="LMAGBLOCH"> F  </i>
   <i type="logical" name="LCHIMAG"> F  </i>
   <i type="logical" name="LGAUGE"> T  </i>
   <i type="int" name="MAGATOM">     0</i>
   <v name="MAGDIPOL">      0.00000000      0.00000000      0.00000000</v>
   <v name="AVECCONST">      0.00000000      0.00000000      0.00000000</v>
  </separator>
  <separator name="response functions" >
   <i type="logical" name="LFINITE_TEMPERATURE"> F  </i>
   <i type="logical" name="LADDER"> F  </i>
   <i type="logical" name="LRPAFORCE"> F  </i>
   <i type="logical" name="LFXC"> F  </i>
   <i type="logical" name="LHARTREE"> T  </i>
   <i type="int" name="IBSE">     0</i>
   <v type="int" name="KPOINT">    -1     0     0     0</v>
   <i type="logical" name="LTCTC"> F  </i>
   <i type="logical" name="LTCTE"> F  </i>
   <i type="logical" name="LTETE"> F  </i>
   <i type="logical" name="LTRIPLET"> F  </i>
   <i type="logical" name="LFXCEPS"> F  </i>
   <i type="logical" name="LFXHEG"> F  </i>
   <i type="int" name="NATURALO">     2</i>
   <i type="logical" name="LHOLEGF"> F  </i>
   <i type="logical" name="L2ORDER"> F  </i>
   <i type="logical" name="LDMP1"> F  </i>
   <i type="logical" name="LMP2LT"> F  </i>
   <i type="logical" name="LSMP2LT"> F  </i>
   <i type="logical" name="LGWLF"> F  </i>
   <i name="ENCUTGW">     -2.00000000</i>
   <i name="ENCUTGWSOFT">     -2.00000000</i>
   <i name="ENCUTLF">     -1.00000000</i>
   <i type="logical" name="LESF_SPLINES"> F  </i>
   <i type="int" name="LMAXMP2">    -1</i>
   <i name="SCISSOR">      0.00000000</i>
   <i type="int" name="NOMEGA">     0</i>
   <i type="int" name="NOMEGAR">     0</i>
   <i type="int" name="NBANDSGW">    -1</i>
   <i type="int" name="NBANDSO">    -1</i>
   <i type="int" name="NBANDSV">    -1</i>
   <i type="int" name="NELM">   100</i>
   <i type="int" name="NELMHF">     1</i>
   <i type="int" name="DIM">     3</i>
   <i type="int" name="IESPILON">     4</i>
   <i type="int" name="ANTIRES">     0</i>
   <i name="OMEGAMAX">    -30.00000000</i>
   <i name="OMEGAMIN">    -30.00000000</i>
   <i name="OMEGATL">   -200.00000000</i>
   <i type="int" name="OMEGAGRID">     0</i>
   <i name="CSHIFT">     -0.10000000</i>
   <i type="logical" name="LSELFENERGY"> F  </i>
   <i type="logical" name="LSPECTRAL"> F  </i>
   <i type="logical" name="LSPECTRALGW"> F  </i>
   <i type="logical" name="LSINGLES"> F  </i>
   <i type="logical" name="LFERMIGW"> F  </i>
   <i type="logical" name="ODDONLYGW"> F  </i>
   <i type="logical" name="EVENONLYGW"> F  </i>
   <i type="int" name="NKREDLFX">     1</i>
   <i type="int" name="NKREDLFY">     1</i>
   <i type="int" name="NKREDLFZ">     1</i>
   <i type="int" name="MAXMEM">  2800</i>
   <i type="int" name="TELESCOPE">     0</i>
   <i type="int" name="NTAUPAR">    -1</i>
   <i type="int" name="NOMEGAPAR">    -1</i>
   <i name="DAMP_NEWTON">      0.80000001</i>
   <i name="LAMBDA">      1.00000000</i>
  </separator>
  <separator name="External order field" >
   <i name="OFIELD_KAPPA">      0.00000000</i>
   <v name="OFIELD_K">      0.00000000      0.00000000      0.00000000</v>
   <i name="OFIELD_Q6_NEAR">      0.00000000</i>
   <i name="OFIELD_Q6_FAR">      0.00000000</i>
   <i name="OFIELD_A">      0.00000000</i>
  </separator>
 </parameters>
 <atominfo>
  <atoms>       8 </atoms>
  <types>       1 </types>
  <array name="atoms" >
   <dimension dim="1">ion</dimension>
   <field type="string">element</field>
   <field type="int">atomtype</field>
   <set>
    <rc><c>Si</c><c>   1</c></rc>
    <rc><c>Si</c><c>   1</c></rc>
    <rc><c>Si</c><c>   1</c></rc>
    <rc><c>Si</c><c>   1</c></rc>
    <rc><c>Si</c><c>   1</c></rc>
    <rc><c>Si</c><c>   1</c></rc>
    <rc><c>Si</c><c>   1</c></rc>
    <rc><c>Si</c><c>   1</c></rc>
   </set>
  </array>
  <array name="atomtypes" >
   <dimension dim="1">type</dimension>
   <field type="int">atomspertype</field>
   <field type="string">element</field>
   <field>mass</field>
   <field>valence</field>
   <field type="string">pseudopotential</field>
   <set>
    <rc><c>   8</c><c>Si</c><c>     28.08500000</c><c>      4.00000000</c><c> PAW_PBE Si 05Jan2001                   </c></rc>
   </set>
  </array>
 </atominfo>
 <structure name="initialpos" >
  <crystal>
   <varray name="basis" >
    <v>       5.47975443       0.00000000       0.00000000 </v>
    <v>       0.00000000       5.47975443       0.00000000 </v>
    <v>       0.00000000       0.00000000       5.47975443 </v>
   </varray>
   <i name="volume">    164.54446954 </i>
   <varray name="rec_basis" >
    <v>       0.18248993      -0.00000000       0.00000000 </v>
    <v>       0.00000000       0.18248993       0.00000000 </v>
    <v>      -0.00000000      -0.00000000       0.18248993 </v>
   </varray>
  </crystal>
  <varray name="positions" >
   <v>       0.75000000       0.75000000       0.25000000 </v>
   <v>       0.00000000       0.50000000       0.50000000 </v>
   <v>       0.75000000       0.25000000       0.75000000 </v>
   <v>       0.00000000       0.00000000       0.00000000 </v>
   <v>       0.25000000       0.75000000       0.75000000 </v>
   <v>       0.50000000       0.50000000       0.00000000 </v>
   <v>       0.25000000       0.25000000       0.25000000 </v>
   <v>       0.50000000       0.00000000       0.50000000 </v>
  </varray>
 </structure>
 <calculation>
  <scstep>
   <time name="dav">    0.43    0.43</time>
   <time name="total">    0.53    0.53</time>
   <energy>
    <i name="alphaZ">     13.09334202 </i>
    <i name="ewald">   -905.95299492 </i>
    <i name="hartreedc">    -45.66234021 </i>
    <i name="XCdc">    -74.83437952 </i>
    <i name="pawpsdc">    263.82083246 </i>
    <i name="pawaedc">   -123.07410713 </i>
    <i name="eentropy">     -0.00168685 </i>
    <i name="bandstr">    116.02243984 </i>
    <i name="atom">    824.53081094 </i>
    <i name="e_fr_energy">     67.94191663 </i>
    <i name="e_wo_entrp">     67.94360348 </i>
    <i name="e_0_energy">     67.94247891 </i>
   </energy>
  </scstep>
  <scstep>
   <time name="dav">    0.53    0.53</time>
   <time name="total">    0.53    0.53</time>
   <energy>
    <i name="e_fr_energy">    -38.95755295 </i>
    <i name="e_wo_entrp">    -38.95970688 </i>
    <i name="e_0_energy">    -38.95827093 </i>
   </energy>
  </scstep>
  <scstep>
   <time name="dav">    0.49    0.50</time>
   <time name="total">    0.50    0.50</time>
   <energy>
    <i name="e_fr_energy">    -43.96317828 </i>
    <i name="e_wo_entrp">    -43.96496191 </i>
    <i name="e_0_energy">    -43.96377282 </i>
   </energy>
  </scstep>
  <scstep>
   <time name="dav">    0.47    0.47</time>
   <time name="total">    0.47    0.47</time>
   <energy>
    <i name="e_fr_energy">    -44.05084891 </i>
    <i name="e_wo_entrp">    -44.05263735 </i>
    <i name="e_0_energy">    -44.05144506 </i>
   </energy>
  </scstep>
  <scstep>
   <time name="dav">    0.49    0.49</time>
   <time name="total">    0.56    0.56</time>
   <energy>
    <i name="e_fr_energy">    -44.05296766 </i>
    <i name="e_wo_entrp">    -44.05475599 </i>
    <i name="e_0_energy">    -44.05356377 </i>
   </energy>
  </scstep>
  <scstep>
   <time name="diag">    0.09    0.09</time>
   <time name="diis">    0.34    0.34</time>
   <time name="orth">    0.00    0.00</time>
   <time name="total">    0.60    0.60</time>
   <energy>
    <i name="e_fr_energy">    -43.59729998 </i>
    <i name="e_wo_entrp">    -43.59907638 </i>
    <i name="e_0_energy">    -43.59789211 </i>
   </energy>
  </scstep>
  <scstep>
   <time name="diag">    0.09    0.09</time>
   <time name="diis">    0.35    0.35</time>
   <time name="orth">    0.00    0.00</time>
   <time name="total">    0.60    0.61</time>
   <energy>
    <i name="e_fr_energy">    -43.38326391 </i>
    <i name="e_wo_entrp">    -43.38509198 </i>
    <i name="e_0_energy">    -43.38387327 </i>
   </energy>
  </scstep>
  <scstep>
   <time name="diag">    0.10    0.10</time>
   <time name="diis">    0.34    0.34</time>
   <time name="orth">    0.00    0.00</time>
   <time name="total">    0.60    0.60</time>
   <energy>
    <i name="e_fr_energy">    -43.39192205 </i>
    <i name="e_wo_entrp">    -43.39370879 </i>
    <i name="e_0_energy">    -43.39251763 </i>
   </energy>
  </scstep>
  <scstep>
   <time name="diag">    0.10    0.10</time>
   <time name="diis">    0.36    0.36</time>
   <time name="orth">    0.00    0.00</time>
   <time name="total">    0.62    0.62</time>
   <energy>
    <i name="e_fr_energy">    -43.39293795 </i>
    <i name="e_wo_entrp">    -43.39473029 </i>
    <i name="e_0_energy">    -43.39353539 </i>
   </energy>
  </scstep>
  <scstep>
   <time name="diag">    0.10    0.10</time>
   <time name="diis">    0.34    0.34</time>
   <time name="orth">    0.00    0.00</time>
   <time name="total">    0.61    0.61</time>
   <energy>
    <i name="e_fr_energy">    -43.39332080 </i>
    <i name="e_wo_entrp">    -43.39510432 </i>
    <i name="e_0_energy">    -43.39391531 </i>
   </energy>
  </scstep>
  <scstep>
   <time name="diag">    0.09    0.09</time>
   <time name="diis">    0.39    0.39</time>
   <time name="orth">    0.00    0.00</time>
   <time name="total">    0.65    0.65</time>
   <energy>
    <i name="e_fr_energy">    -43.39333054 </i>
    <i name="e_wo_entrp">    -43.39511675 </i>
    <i name="e_0_energy">    -43.39392594 </i>
   </energy>
  </scstep>
  <scstep>
   <time name="diag">    0.09    0.09</time>
   <time name="diis">    0.40    0.40</time>
   <time name="orth">    0.00    0.00</time>
   <time name="total">    0.65    0.65</time>
   <energy>
    <i name="e_fr_energy">    -43.39335410 </i>
    <i name="e_wo_entrp">    -43.39514033 </i>
    <i name="e_0_energy">    -43.39394951 </i>
   </energy>
  </scstep>
  <scstep>
   <time name="diag">    0.09    0.09</time>
   <time name="diis">    0.35    0.35</time>
   <time name="orth">    0.00    0.00</time>
   <time name="total">    0.60    0.60</time>
   <energy>
    <i name="e_fr_energy">    -43.39335541 </i>
    <i name="e_wo_entrp">    -43.39514109 </i>
    <i name="e_0_energy">    -43.39395064 </i>
   </energy>
  </scstep>
  <scstep>
   <time name="diag">    0.09    0.09</time>
   <time name="diis">    0.31    0.31</time>
   <time name="orth">    0.00    0.00</time>
   <time name="total">    0.56    0.56</time>
   <energy>
    <i name="e_fr_energy">    -43.39335731 </i>
    <i name="e_wo_entrp">    -43.39514332 </i>
    <i name="e_0_energy">    -43.39395264 </i>
   </energy>
  </scstep>
  <scstep>
   <time name="diag">    0.09    0.09</time>
   <time name="diis">    0.26    0.26</time>
   <time name="orth">    0.00    0.00</time>
   <time name="total">    0.45    0.45</time>
   <energy>
    <i name="alphaZ">     13.09334202 </i>
    <i name="ewald">   -905.95299492 </i>
    <i name="hartreedc">    -60.99538917 </i>
    <i name="XCdc">    -72.34994112 </i>
    <i name="pawpsdc">    293.71258771 </i>
    <i name="pawaedc">   -153.76736468 </i>
    <i name="eentropy">      0.00178601 </i>
    <i name="bandstr">     18.33380581 </i>
    <i name="atom">    824.53081094 </i>
    <i name="e_fr_energy">    -43.39335740 </i>
    <i name="e_wo_entrp">    -43.39514341 </i>
    <i name="e_0_energy">    -43.39395273 </i>
   </energy>
  </scstep>
  <structure>
   <crystal>
    <varray name="basis" >
     <v>       5.47975443       0.00000000       0.00000000 </v>
     <v>       0.00000000       5.47975443       0.00000000 </v>
     <v>       0.00000000       0.00000000       5.47975443 </v>
    </varray>
    <i name="volume">    164.54446954 </i>
    <varray name="rec_basis" >
     <v>       0.18248993      -0.00000000       0.00000000 </v>
     <v>       0.00000000       0.18248993       0.00000000 </v>
     <v>      -0.00000000      -0.00000000       0.18248993 </v>
    </varray>
   </crystal>
   <varray name="positions" >
    <v>       0.75000000       0.75000000       0.25000000 </v>
    <v>       0.00000000       0.50000000       0.50000000 </v>
    <v>       0.75000000       0.25000000       0.75000000 </v>
    <v>       0.00000000       0.00000000       0.00000000 </v>
    <v>       0.25000000       0.75000000       0.75000000 </v>
    <v>       0.50000000       0.50000000       0.00000000 </v>
    <v>       0.25000000       0.25000000       0.25000000 </v>
    <v>       0.50000000       0.00000000       0.50000000 </v>
   </varray>
  </structure>
  <varray name="forces" >
   <v>       0.00000000       0.00000000       0.00000000 </v>
   <v>      -0.00000000      -0.00000000      -0.00000000 </v>
   <v>       0.00000000      -0.00000000      -0.00000000 </v>
   <v>      -0.00000000       0.00000000       0.00000000 </v>
   <v>      -0.00000000      -0.00000000      -0.00000000 </v>
   <v>       0.00000000       0.00000000       0.00000000 </v>
   <v>       0.00000000       0.00000000       0.00000000 </v>
   <v>      -0.00000000       0.00000000      -0.00000000 </v>
  </varray>
  <varray name="stress" >
   <v>      -5.38198666       0.00000000       0.00000000 </v>
   <v>       0.00000000      -5.38198666      -0.00000000 </v>
   <v>       0.00000000       0.00000000      -5.38198666 </v>
  </varray>
  <energy>
   <i name="e_fr_energy">    -43.39335740 </i>
   <i name="e_wo_entrp">    -43.39514341 </i>
   <i name="e_0_energy">    -43.39395273 </i>
  </energy>
  <time name="totalsc">    9.07    9.08</time>
  <eigenvalues>
   <array>
    <dimension dim="1">band</dimension>
    <dimension dim="2">kpoint</dimension>
    <dimension dim="3">spin</dimension>
    <field>eigene</field>
    <field>occ</field>
    <set>
     <set comment="spin 1">
      <set comment="kpoint 1">
       <r>   -6.2173    1.0000 </r>
       <r>   -2.1705    1.0000 </r>
       <r>   -2.1705    1.0000 </r>
       <r>   -2.1705    1.0000 </r>
       <r>   -2.1705    1.0000 </r>
       <r>   -2.1705    1.0000 </r>
       <r>   -2.1705    1.0000 </r>
       <r>    2.7783    1.0000 </r>
       <r>    2.7783    1.0000 </r>
       <r>    2.7783    1.0000 </r>
       <r>    2.7783    1.0000 </r>
       <r>    2.7783    1.0000 </r>
       <r>    2.7783    1.0000 </r>
       <r>    5.5567    0.8708 </r>
       <r>    5.5567    0.8708 </r>
       <r>    5.5567    0.8708 </r>
       <r>    6.3197   -0.0000 </r>
       <r>    6.3197   -0.0000 </r>
       <r>    6.3197   -0.0000 </r>
       <r>    6.3197   -0.0000 </r>
       <r>    6.3197   -0.0000 </r>
       <r>    6.3197   -0.0000 </r>
       <r>    8.1108   -0.0000 </r>
       <r>    8.1108   -0.0000 </r>
      </set>
      <set comment="kpoint 2">
       <r>   -6.0465    1.0000 </r>
       <r>   -3.5684    1.0000 </r>
       <r>   -2.1210    1.0000 </r>
       <r>   -2.1210    1.0000 </r>
       <r>   -2.1210    1.0000 </r>
       <r>   -2.1210    1.0000 </r>
       <r>   -0.5699    1.0000 </r>
       <r>    2.3872    1.0000 </r>
       <r>    2.3872    1.0000 </r>
       <r>    2.3872    1.0000 </r>
       <r>    2.3872    1.0000 </r>
       <r>    2.9324    1.0000 </r>
       <r>    2.9324    1.0000 </r>
       <r>    4.5954    1.0000 </r>
       <r>    4.9993    1.0000 </r>
       <r>    4.9993    1.0000 </r>
       <r>    6.1846   -0.0006 </r>
       <r>    6.9166   -0.0000 </r>
       <r>    7.1490   -0.0000 </r>
       <r>    7.1490   -0.0000 </r>
       <r>    7.1490   -0.0000 </r>
       <r>    7.1490   -0.0000 </r>
       <r>    7.7412   -0.0000 </r>
       <r>    8.8781   -0.0000 </r>
      </set>
      <set comment="kpoint 3">
       <r>   -5.5378    1.0000 </r>
       <r>   -4.7039    1.0000 </r>
       <r>   -2.0343    1.0000 </r>
       <r>   -2.0343    1.0000 </r>
       <r>   -2.0343    1.0000 </r>
       <r>   -2.0343    1.0000 </r>
       <r>    1.1548    1.0000 </r>
       <r>    1.8949    1.0000 </r>
       <r>    1.8949    1.0000 </r>
       <r>    1.8949    1.0000 </r>
       <r>    1.8949    1.0000 </r>
       <r>    2.9179    1.0000 </r>
       <r>    3.3872    1.0000 </r>
       <r>    3.3872    1.0000 </r>
       <r>    4.1115    1.0000 </r>
       <r>    4.1115    1.0000 </r>
       <r>    6.4534   -0.0000 </r>
       <r>    7.0364   -0.0000 </r>
       <r>    7.9983   -0.0000 </r>
       <r>    8.9800   -0.0000 </r>
       <r>    8.9800   -0.0000 </r>
       <r>    8.9800   -0.0000 </r>
       <r>    8.9800   -0.0000 </r>
       <r>    9.3972   -0.0000 </r>
      </set>
      <set comment="kpoint 4">
       <r>   -5.8778    1.0000 </r>
       <r>   -3.4544    1.0000 </r>
       <r>   -3.4544    1.0000 </r>
       <r>   -2.4014    1.0000 </r>
       <r>   -1.7988    1.0000 </r>
       <r>   -0.6550    1.0000 </r>
       <r>   -0.6550    1.0000 </r>
       <r>    1.6137    1.0000 </r>
       <r>    2.4276    1.0000 </r>
       <r>    2.4276    1.0000 </r>
       <r>    2.7472    1.0000 </r>
       <r>    2.7472    1.0000 </r>
       <r>    3.0475    1.0000 </r>
       <r>    3.5299    1.0000 </r>
       <r>    4.4336    1.0000 </r>
       <r>    5.3816    1.0326 </r>
       <r>    6.6297   -0.0000 </r>
       <r>    7.0646   -0.0000 </r>
       <r>    7.0646   -0.0000 </r>
       <r>    7.6587   -0.0000 </r>
       <r>    7.6587   -0.0000 </r>
       <r>    8.4453   -0.0000 </r>
       <r>    8.4632   -0.0000 </r>
       <r>    8.6392   -0.0000 </r>
      </set>
      <set comment="kpoint 5">
       <r>   -5.3767    1.0000 </r>
       <r>   -4.5585    1.0000 </r>
       <r>   -3.1455    1.0000 </r>
       <r>   -2.7481    1.0000 </r>
       <r>   -1.3815    1.0000 </r>
       <r>   -0.9453    1.0000 </r>
       <r>    0.8117    1.0000 </r>
       <r>    1.3493    1.0000 </r>
       <r>    1.6926    1.0000 </r>
       <r>    2.1975    1.0000 </r>
       <r>    2.6540    1.0000 </r>
       <r>    2.8279    1.0000 </r>
       <r>    2.9203    1.0000 </r>
       <r>    3.5278    1.0000 </r>
       <r>    3.5369    1.0000 </r>
       <r>    4.6055    1.0000 </r>
       <r>    7.3454   -0.0000 </r>
       <r>    7.7337   -0.0000 </r>
       <r>    7.9001   -0.0000 </r>
       <r>    8.6238   -0.0000 </r>
       <r>    8.9350   -0.0000 </r>
       <r>    9.1800   -0.0000 </r>
       <r>    9.3388   -0.0000 </r>
       <r>    9.9119   -0.0000 </r>
      </set>
      <set comment="kpoint 6">
       <r>   -4.9010    1.0000 </r>
       <r>   -4.1377    1.0000 </r>
       <r>   -4.1377    1.0000 </r>
       <r>   -3.4965    1.0000 </r>
       <r>   -0.6924    1.0000 </r>
       <r>    0.0777    1.0000 </r>
       <r>    0.0777    1.0000 </r>
       <r>    1.1173    1.0000 </r>
       <r>    1.4149    1.0000 </r>
       <r>    1.9761    1.0000 </r>
       <r>    1.9761    1.0000 </r>
       <r>    2.6417    1.0000 </r>
       <r>    3.7873    1.0000 </r>
       <r>    3.8154    1.0000 </r>
       <r>    3.8154    1.0000 </r>
       <r>    4.7295    1.0000 </r>
       <r>    7.4773   -0.0000 </r>
       <r>    8.3939   -0.0000 </r>
       <r>    8.7084   -0.0000 </r>
       <r>    8.7084   -0.0000 </r>
       <r>    9.1877   -0.0000 </r>
       <r>    9.1877   -0.0000 </r>
       <r>    9.5133   -0.0000 </r>
       <r>    9.8142   -0.0000 </r>
      </set>
      <set comment="kpoint 7">
       <r>   -5.7120    1.0000 </r>
       <r>   -3.3769    1.0000 </r>
       <r>   -3.3769    1.0000 </r>
       <r>   -3.3769    1.0000 </r>
       <r>   -0.8087    1.0000 </r>
       <r>   -0.8087    1.0000 </r>
       <r>   -0.8087    1.0000 </r>
       <r>    1.9759    1.0000 </r>
       <r>    1.9759    1.0000 </r>
       <r>    1.9759    1.0000 </r>
       <r>    2.5814    1.0000 </r>
       <r>    3.1921    1.0000 </r>
       <r>    3.1921    1.0000 </r>
       <r>    3.1921    1.0000 </r>
       <r>    4.9923    1.0000 </r>
       <r>    4.9923    1.0000 </r>
       <r>    6.8226   -0.0000 </r>
       <r>    6.8226   -0.0000 </r>
       <r>    6.8226   -0.0000 </r>
       <r>    7.6884   -0.0000 </r>
       <r>    8.8950   -0.0000 </r>
       <r>    8.8977   -0.0000 </r>
       <r>    8.9311   -0.0000 </r>
       <r>    8.9311   -0.0000 </r>
      </set>
      <set comment="kpoint 8">
       <r>   -5.2207    1.0000 </r>
       <r>   -4.4252    1.0000 </r>
       <r>   -3.2296    1.0000 </r>
       <r>   -3.2296    1.0000 </r>
       <r>   -1.0959    1.0000 </r>
       <r>   -1.0959    1.0000 </r>
       <r>    0.3048    1.0000 </r>
       <r>    1.3948    1.0000 </r>
       <r>    1.8217    1.0000 </r>
       <r>    1.8217    1.0000 </r>
       <r>    2.9927    1.0000 </r>
       <r>    3.1574    1.0000 </r>
       <r>    3.1574    1.0000 </r>
       <r>    3.6135    1.0000 </r>
       <r>    4.2621    1.0000 </r>
       <r>    4.3030    1.0000 </r>
       <r>    7.3464   -0.0000 </r>
       <r>    7.8941   -0.0000 </r>
       <r>    7.9044   -0.0000 </r>
       <r>    7.9044   -0.0000 </r>
       <r>    8.8837   -0.0000 </r>
       <r>    9.6201   -0.0000 </r>
       <r>    9.8138   -0.0000 </r>
       <r>    9.8872   -0.0000 </r>
      </set>
      <set comment="kpoint 9">
       <r>   -4.7648    1.0000 </r>
       <r>   -4.0555    1.0000 </r>
       <r>   -4.0555    1.0000 </r>
       <r>   -3.5710    1.0000 </r>
       <r>   -1.0436    1.0000 </r>
       <r>   -0.5017    1.0000 </r>
       <r>   -0.5017    1.0000 </r>
       <r>    0.3406    1.0000 </r>
       <r>    2.2046    1.0000 </r>
       <r>    2.7199    1.0000 </r>
       <r>    2.7199    1.0000 </r>
       <r>    3.5571    1.0000 </r>
       <r>    3.8859    1.0000 </r>
       <r>    3.9043    1.0000 </r>
       <r>    3.9043    1.0000 </r>
       <r>    4.6653    1.0000 </r>
       <r>    7.6144   -0.0000 </r>
       <r>    7.8876   -0.0000 </r>
       <r>    8.2694   -0.0000 </r>
       <r>    8.2694   -0.0000 </r>
       <r>    8.8321   -0.0000 </r>
       <r>    8.8321   -0.0000 </r>
       <r>    9.1633   -0.0000 </r>
       <r>    9.2420   -0.0000 </r>
      </set>
      <set comment="kpoint 10">
       <r>   -4.3873    1.0000 </r>
       <r>   -3.8988    1.0000 </r>
       <r>   -3.8988    1.0000 </r>
       <r>   -3.8988    1.0000 </r>
       <r>   -1.1470    1.0000 </r>
       <r>   -1.1470    1.0000 </r>
       <r>   -1.1470    1.0000 </r>
       <r>   -0.6089    1.0000 </r>
       <r>    3.6168    1.0000 </r>
       <r>    3.6168    1.0000 </r>
       <r>    3.6168    1.0000 </r>
       <r>    4.1459    1.0000 </r>
       <r>    4.1459    1.0000 </r>
       <r>    4.1459    1.0000 </r>
       <r>    4.4543    1.0000 </r>
       <r>    4.4543    1.0000 </r>
       <r>    7.0845   -0.0000 </r>
       <r>    7.6374   -0.0000 </r>
       <r>    7.6374   -0.0000 </r>
       <r>    7.6374   -0.0000 </r>
       <r>    8.8659   -0.0000 </r>
       <r>    8.8659   -0.0000 </r>
       <r>    8.8667   -0.0000 </r>
       <r>    8.9781   -0.0000 </r>
      </set>
     </set>
    </set>
   </array>
  </eigenvalues>
  <separator name="orbital magnetization" >
   <v name="MAGDIPOLOUT">      0.00000000      0.00000000      0.00000000</v>
  </separator>
  <dos>
   <i name="efermi">      5.65696574 </i>
   <total>
    <array>
     <dimension dim="1">gridpoints</dimension>
     <dimension dim="2">spin</dimension>
     <field>energy</field>
     <field>total</field>
     <field>integrated</field>
     <set>
      <set comment="spin 1">
       <r>    -8.2173     0.0000     0.0000 </r>
       <r>    -8.1502     0.0000     0.0000 </r>
       <r>    -8.0831     0.0000     0.0000 </r>
       <r>    -8.0160     0.0000     0.0000 </r>
       <r>    -7.9489     0.0000     0.0000 </r>
       <r>    -7.8818    -0.0000    -0.0000 </r>
       <r>    -7.8147    -0.0000    -0.0000 </r>
       <r>    -7.7476    -0.0000    -0.0000 </r>
       <r>    -7.6805    -0.0000    -0.0000 </r>
       <r>    -7.6134    -0.0000    -0.0000 </r>
       <r>    -7.5463    -0.0000    -0.0000 </r>
       <r>    -7.4792    -0.0000    -0.0000 </r>
       <r>    -7.4121    -0.0000    -0.0000 </r>
       <r>    -7.3450    -0.0000    -0.0000 </r>
       <r>    -7.2779    -0.0000    -0.0000 </r>
       <r>    -7.2108    -0.0000    -0.0000 </r>
       <r>    -7.1437    -0.0000    -0.0000 </r>
       <r>    -7.0766    -0.0000    -0.0000 </r>
       <r>    -7.0095    -0.0000    -0.0000 </r>
       <r>    -6.9424    -0.0000    -0.0000 </r>
       <r>    -6.8753    -0.0000    -0.0000 </r>
       <r>    -6.8082    -0.0000    -0.0000 </r>
       <r>    -6.7411    -0.0001    -0.0000 </r>
       <r>    -6.6741    -0.0006    -0.0001 </r>
       <r>    -6.6070    -0.0019    -0.0002 </r>
       <r>    -6.5399    -0.0047    -0.0005 </r>
       <r>    -6.4728    -0.0087    -0.0011 </r>
       <r>    -6.4057    -0.0109    -0.0018 </r>
       <r>    -6.3386    -0.0044    -0.0021 </r>
       <r>    -6.2715     0.0240    -0.0005 </r>
       <r>    -6.2044     0.0934     0.0058 </r>
       <r>    -6.1373     0.2212     0.0206 </r>
       <r>    -6.0702     0.4092     0.0481 </r>
       <r>    -6.0031     0.6368     0.0908 </r>
       <r>    -5.9360     0.8583     0.1484 </r>
       <r>    -5.8689     1.0035     0.2157 </r>
       <r>    -5.8018     1.0125     0.2837 </r>
       <r>    -5.7347     0.8889     0.3433 </r>
       <r>    -5.6676     0.7132     0.3912 </r>
       <r>    -5.6005     0.6172     0.4326 </r>
       <r>    -5.5334     0.7446     0.4825 </r>
       <r>    -5.4663     1.1633     0.5606 </r>
       <r>    -5.3992     1.7644     0.6790 </r>
       <r>    -5.3321     2.2821     0.8321 </r>
       <r>    -5.2650     2.4463     0.9962 </r>
       <r>    -5.1979     2.1324     1.1393 </r>
       <r>    -5.1308     1.4561     1.2370 </r>
       <r>    -5.0637     0.7763     1.2891 </r>
       <r>    -4.9966     0.4990     1.3226 </r>
       <r>    -4.9295     0.7797     1.3749 </r>
       <r>    -4.8624     1.4187     1.4701 </r>
       <r>    -4.7953     2.0347     1.6066 </r>
       <r>    -4.7282     2.3547     1.7646 </r>
       <r>    -4.6611     2.4183     1.9268 </r>
       <r>    -4.5940     2.4908     2.0940 </r>
       <r>    -4.5269     2.7014     2.2752 </r>
       <r>    -4.4598     2.8231     2.4647 </r>
       <r>    -4.3927     2.5320     2.6345 </r>
       <r>    -4.3256     1.9151     2.7630 </r>
       <r>    -4.2585     1.6056     2.8708 </r>
       <r>    -4.1914     2.2054     3.0188 </r>
       <r>    -4.1244     3.5271     3.2554 </r>
       <r>    -4.0573     4.6258     3.5658 </r>
       <r>    -3.9902     4.6910     3.8805 </r>
       <r>    -3.9231     3.7239     4.1304 </r>
       <r>    -3.8560     2.3170     4.2859 </r>
       <r>    -3.7889     1.1215     4.3611 </r>
       <r>    -3.7218     0.6427     4.4042 </r>
       <r>    -3.6547     1.1426     4.4809 </r>
       <r>    -3.5876     2.4114     4.6427 </r>
       <r>    -3.5205     3.7777     4.8962 </r>
       <r>    -3.4534     4.6067     5.2053 </r>
       <r>    -3.3863     4.8354     5.5297 </r>
       <r>    -3.3192     4.8947     5.8581 </r>
       <r>    -3.2521     5.0302     6.1957 </r>
       <r>    -3.1850     4.8785     6.5230 </r>
       <r>    -3.1179     3.9437     6.7876 </r>
       <r>    -3.0508     2.3644     6.9462 </r>
       <r>    -2.9837     0.9096     7.0073 </r>
       <r>    -2.9166     0.2672     7.0252 </r>
       <r>    -2.8495     0.5090     7.0594 </r>
       <r>    -2.7824     1.1294     7.1351 </r>
       <r>    -2.7153     1.4767     7.2342 </r>
       <r>    -2.6482     1.2690     7.3194 </r>
       <r>    -2.5811     0.7779     7.3716 </r>
       <r>    -2.5140     0.4580     7.4023 </r>
       <r>    -2.4469     0.4524     7.4326 </r>
       <r>    -2.3798     0.5792     7.4715 </r>
       <r>    -2.3127     0.7478     7.5217 </r>
       <r>    -2.2456     1.1642     7.5998 </r>
       <r>    -2.1785     1.9768     7.7324 </r>
       <r>    -2.1114     2.8514     7.9238 </r>
       <r>    -2.0443     3.1682     8.1363 </r>
       <r>    -1.9772     2.6889     8.3168 </r>
       <r>    -1.9101     1.8198     8.4389 </r>
       <r>    -1.8430     1.1215     8.5141 </r>
       <r>    -1.7759     0.7433     8.5640 </r>
       <r>    -1.7088     0.4816     8.5963 </r>
       <r>    -1.6417     0.2252     8.6114 </r>
       <r>    -1.5747     0.1271     8.6199 </r>
       <r>    -1.5076     0.3583     8.6440 </r>
       <r>    -1.4405     0.8219     8.6991 </r>
       <r>    -1.3734     1.2414     8.7824 </r>
       <r>    -1.3063     1.6281     8.8917 </r>
       <r>    -1.2392     2.4701     9.0574 </r>
       <r>    -1.1721     4.0768     9.3310 </r>
       <r>    -1.1050     5.8177     9.7213 </r>
       <r>    -1.0379     6.5353    10.1598 </r>
       <r>    -0.9708     5.8010    10.5490 </r>
       <r>    -0.9037     4.3532    10.8411 </r>
       <r>    -0.8366     3.2661    11.0603 </r>
       <r>    -0.7695     3.0592    11.2655 </r>
       <r>    -0.7024     3.6025    11.5073 </r>
       <r>    -0.6353     4.4472    11.8057 </r>
       <r>    -0.5682     5.0409    12.1439 </r>
       <r>    -0.5011     4.8696    12.4706 </r>
       <r>    -0.4340     3.7590    12.7228 </r>
       <r>    -0.3669     2.1183    12.8650 </r>
       <r>    -0.2998     0.6731    12.9101 </r>
       <r>    -0.2327    -0.1238    12.9018 </r>
       <r>    -0.1656    -0.2962    12.8820 </r>
       <r>    -0.0985    -0.0474    12.8788 </r>
       <r>    -0.0314     0.4701    12.9103 </r>
       <r>     0.0357     1.0787    12.9827 </r>
       <r>     0.1028     1.5828    13.0889 </r>
       <r>     0.1699     2.0065    13.2235 </r>
       <r>     0.2370     2.5456    13.3943 </r>
       <r>     0.3041     3.0824    13.6011 </r>
       <r>     0.3712     3.0854    13.8082 </r>
       <r>     0.4383     2.2704    13.9605 </r>
       <r>     0.5054     1.0656    14.0320 </r>
       <r>     0.5725     0.1958    14.0451 </r>
       <r>     0.6396     0.0485    14.0484 </r>
       <r>     0.7067     0.5178    14.0831 </r>
       <r>     0.7738     1.1692    14.1616 </r>
       <r>     0.8409     1.5013    14.2623 </r>
       <r>     0.9080     1.3200    14.3509 </r>
       <r>     0.9750     0.9130    14.4122 </r>
       <r>     1.0421     0.7071    14.4596 </r>
       <r>     1.1092     0.8348    14.5156 </r>
       <r>     1.1763     1.2202    14.5975 </r>
       <r>     1.2434     1.9023    14.7251 </r>
       <r>     1.3105     2.8692    14.9176 </r>
       <r>     1.3776     3.6522    15.1627 </r>
       <r>     1.4447     3.6310    15.4063 </r>
       <r>     1.5118     2.8646    15.5985 </r>
       <r>     1.5789     2.1784    15.7447 </r>
       <r>     1.6460     2.3200    15.9004 </r>
       <r>     1.7131     3.3570    16.1256 </r>
       <r>     1.7802     4.8387    16.4503 </r>
       <r>     1.8473     6.1263    16.8613 </r>
       <r>     1.9144     6.5980    17.3040 </r>
       <r>     1.9815     5.9957    17.7063 </r>
       <r>     2.0486     4.7559    18.0255 </r>
       <r>     2.1157     3.7299    18.2757 </r>
       <r>     2.1828     3.3861    18.5029 </r>
       <r>     2.2499     3.4850    18.7368 </r>
       <r>     2.3170     3.5785    18.9769 </r>
       <r>     2.3841     3.4674    19.2095 </r>
       <r>     2.4512     3.2259    19.4260 </r>
       <r>     2.5183     3.2583    19.6446 </r>
       <r>     2.5854     4.1595    19.9237 </r>
       <r>     2.6525     5.9660    20.3240 </r>
       <r>     2.7196     7.7402    20.8433 </r>
       <r>     2.7867     8.4155    21.4080 </r>
       <r>     2.8538     7.8841    21.9370 </r>
       <r>     2.9209     6.8925    22.3995 </r>
       <r>     2.9880     6.1577    22.8126 </r>
       <r>     3.0551     5.8977    23.2083 </r>
       <r>     3.1222     5.8274    23.5993 </r>
       <r>     3.1893     5.3271    23.9568 </r>
       <r>     3.2564     4.0645    24.2295 </r>
       <r>     3.3235     2.7005    24.4107 </r>
       <r>     3.3906     2.5515    24.5819 </r>
       <r>     3.4576     4.2228    24.8652 </r>
       <r>     3.5247     6.6923    25.3143 </r>
       <r>     3.5918     8.0810    25.8565 </r>
       <r>     3.6589     7.5716    26.3645 </r>
       <r>     3.7260     6.2729    26.7854 </r>
       <r>     3.7931     5.7555    27.1716 </r>
       <r>     3.8602     6.0934    27.5804 </r>
       <r>     3.9273     6.0596    27.9870 </r>
       <r>     3.9944     5.0215    28.3239 </r>
       <r>     4.0615     3.7567    28.5760 </r>
       <r>     4.1286     3.2911    28.7968 </r>
       <r>     4.1957     3.6739    29.0433 </r>
       <r>     4.2628     4.1713    29.3232 </r>
       <r>     4.3299     4.1945    29.6047 </r>
       <r>     4.3970     3.7882    29.8588 </r>
       <r>     4.4641     3.4370    30.0895 </r>
       <r>     4.5312     3.5390    30.3269 </r>
       <r>     4.5983     3.9642    30.5929 </r>
       <r>     4.6654     4.0989    30.8679 </r>
       <r>     4.7325     3.4712    31.1008 </r>
       <r>     4.7996     2.3483    31.2584 </r>
       <r>     4.8667     1.5129    31.3599 </r>
       <r>     4.9338     1.3946    31.4535 </r>
       <r>     5.0009     1.6253    31.5625 </r>
       <r>     5.0680     1.5593    31.6672 </r>
       <r>     5.1351     1.0444    31.7372 </r>
       <r>     5.2022     0.4949    31.7705 </r>
       <r>     5.2693     0.3234    31.7922 </r>
       <r>     5.3364     0.5181    31.8269 </r>
       <r>     5.4035     0.7567    31.8777 </r>
       <r>     5.4706     0.7797    31.9300 </r>
       <r>     5.5377     0.5875    31.9694 </r>
       <r>     5.6048     0.3346    31.9919 </r>
       <r>     5.6719     0.1399    32.0013 </r>
       <r>     5.7390     0.0282    32.0031 </r>
       <r>     5.8061    -0.0237    32.0016 </r>
       <r>     5.8732    -0.0433    31.9987 </r>
       <r>     5.9403    -0.0395    31.9960 </r>
       <r>     6.0073     0.0084    31.9966 </r>
       <r>     6.0744     0.1320    32.0054 </r>
       <r>     6.1415     0.3265    32.0273 </r>
       <r>     6.2086     0.5299    32.0629 </r>
       <r>     6.2757     0.6675    32.1077 </r>
       <r>     6.3428     0.7115    32.1554 </r>
       <r>     6.4099     0.6946    32.2020 </r>
       <r>     6.4770     0.6811    32.2477 </r>
       <r>     6.5441     0.7293    32.2967 </r>
       <r>     6.6112     0.8686    32.3549 </r>
       <r>     6.6783     1.1077    32.4293 </r>
       <r>     6.7454     1.4273    32.5250 </r>
       <r>     6.8125     1.7495    32.6424 </r>
       <r>     6.8796     2.0259    32.7783 </r>
       <r>     6.9467     2.3880    32.9386 </r>
       <r>     7.0138     2.9789    33.1384 </r>
       <r>     7.0809     3.5915    33.3794 </r>
       <r>     7.1480     3.8249    33.6361 </r>
       <r>     7.2151     3.6667    33.8821 </r>
       <r>     7.2822     3.4880    34.1161 </r>
       <r>     7.3493     3.4214    34.3457 </r>
       <r>     7.4164     3.3093    34.5677 </r>
       <r>     7.4835     3.3385    34.7917 </r>
       <r>     7.5506     4.0289    35.0621 </r>
       <r>     7.6177     5.3783    35.4229 </r>
       <r>     7.6848     6.7187    35.8738 </r>
       <r>     7.7519     7.6879    36.3896 </r>
       <r>     7.8190     8.5284    36.9618 </r>
       <r>     7.8861     9.0317    37.5678 </r>
       <r>     7.9532     8.2147    38.1190 </r>
       <r>     8.0203     5.7807    38.5069 </r>
       <r>     8.0874     3.0656    38.7126 </r>
       <r>     8.1545     1.7640    38.8309 </r>
       <r>     8.2216     2.1941    38.9782 </r>
       <r>     8.2887     3.2736    39.1978 </r>
       <r>     8.3558     3.8447    39.4558 </r>
       <r>     8.4229     3.6430    39.7002 </r>
       <r>     8.4900     3.1587    39.9121 </r>
       <r>     8.5570     2.9784    40.1120 </r>
       <r>     8.6241     3.4181    40.3413 </r>
       <r>     8.6912     4.6488    40.6533 </r>
       <r>     8.7583     6.7933    41.1091 </r>
       <r>     8.8254     9.4339    41.7421 </r>
       <r>     8.8925    11.2174    42.4947 </r>
       <r>     8.9596    10.8637    43.2236 </r>
       <r>     9.0267     8.7928    43.8136 </r>
       <r>     9.0938     6.8972    44.2764 </r>
       <r>     9.1609     6.3678    44.7037 </r>
       <r>     9.2280     6.5065    45.1402 </r>
       <r>     9.2951     5.9971    45.5426 </r>
       <r>     9.3622     4.5786    45.8498 </r>
       <r>     9.4293     3.0323    46.0533 </r>
       <r>     9.4964     2.0915    46.1936 </r>
       <r>     9.5635     1.8409    46.3171 </r>
       <r>     9.6306     2.0218    46.4528 </r>
       <r>     9.6977     2.5711    46.6253 </r>
       <r>     9.7648     3.5849    46.8659 </r>
       <r>     9.8319     4.7330    47.1834 </r>
       <r>     9.8990     5.1455    47.5287 </r>
       <r>     9.9661     4.2489    47.8138 </r>
       <r>    10.0332     2.4798    47.9802 </r>
       <r>    10.1003     0.8472    48.0370 </r>
       <r>    10.1674    -0.0319    48.0349 </r>
       <r>    10.2345    -0.2447    48.0184 </r>
       <r>    10.3016    -0.1718    48.0069 </r>
       <r>    10.3687    -0.0739    48.0020 </r>
       <r>    10.4358    -0.0227    48.0004 </r>
       <r>    10.5029    -0.0053    48.0001 </r>
       <r>    10.5700    -0.0009    48.0000 </r>
       <r>    10.6371    -0.0001    48.0000 </r>
       <r>    10.7042    -0.0000    48.0000 </r>
       <r>    10.7713    -0.0000    48.0000 </r>
       <r>    10.8384    -0.0000    48.0000 </r>
       <r>    10.9055    -0.0000    48.0000 </r>
       <r>    10.9726    -0.0000    48.0000 </r>
       <r>    11.0397    -0.0000    48.0000 </r>
       <r>    11.1067    -0.0000    48.0000 </r>
       <r>    11.1738    -0.0000    48.0000 </r>
       <r>    11.2409     0.0000    48.0000 </r>
       <r>    11.3080     0.0000    48.0000 </r>
       <r>    11.3751     0.0000    48.0000 </r>
       <r>    11.4422     0.0000    48.0000 </r>
       <r>    11.5093     0.0000    48.0000 </r>
       <r>    11.5764     0.0000    48.0000 </r>
       <r>    11.6435     0.0000    48.0000 </r>
       <r>    11.7106     0.0000    48.0000 </r>
       <r>    11.7777     0.0000    48.0000 </r>
       <r>    11.8448     0.0000    48.0000 </r>
       <r>    11.9119     0.0000    48.0000 </r>
      </set>
     </set>
    </array>
   </total>
  </dos>
 </calculation>
 <structure name="finalpos" >
  <crystal>
   <varray name="basis" >
    <v>       5.47975443       0.00000000       0.00000000 </v>
    <v>       0.00000000       5.47975443       0.00000000 </v>
    <v>       0.00000000       0.00000000       5.47975443 </v>
   </varray>
   <i name="volume">    164.54446954 </i>
   <varray name="rec_basis" >
    <v>       0.18248993      -0.00000000       0.00000000 </v>
    <v>       0.00000000       0.18248993       0.00000000 </v>
    <v>      -0.00000000      -0.00000000       0.18248993 </v>
   </varray>
  </crystal>
  <varray name="positions" >
   <v>       0.75000000       0.75000000       0.25000000 </v>
   <v>       0.00000000       0.50000000       0.50000000 </v>
   <v>       0.75000000       0.25000000       0.75000000 </v>
   <v>       0.00000000       0.00000000       0.00000000 </v>
   <v>       0.25000000       0.75000000       0.75000000 </v>
   <v>       0.50000000       0.50000000       0.00000000 </v>
   <v>       0.25000000       0.25000000       0.25000000 </v>
   <v>       0.50000000       0.00000000       0.50000000 </v>
  </varray>
 </structure>
</modeling>
