<?xml version="1.0" encoding="ISO-8859-1"?>
<modeling>
 <generator>
  <i name="program" type="string">vasp </i>
  <i name="version" type="string">6.2.1  </i>
  <i name="subversion" type="string">16May21 (build Aug 15 2022 14:47:30) complex                          parallel </i>
  <i name="platform" type="string">LinuxGNU </i>
  <i name="date" type="string">2025 12 30 </i>
  <i name="time" type="string">16:12:29 </i>
 </generator>
 <incar>
  <i type="string" name="PREC">Accurate</i>
  <i type="string" name="ALGO">Fast</i>
  <i type="int" name="NELM">   100</i>
  <i name="EDIFF">      0.00000100</i>
  <i type="int" name="NSW">     0</i>
  <i name="ENCUT">    520.00000000</i>
  <i type="logical" name="LREAL"> F  </i>
  <i type="int" name="ISMEAR">     1</i>
  <i type="logical" name="LWAVE"> F  </i>
  <i type="logical" name="LCHARG"> F  </i>
  <i type="logical" name="LASPH"> T  </i>
 </incar>
 <primitive_cell>
  <structure name="primitive_cell" >
   <crystal>
    <varray name="basis" >
     <v>       2.75766913      -2.75766913       0.00000000 </v>
     <v>       2.75766913       0.00000000       2.75766913 </v>
     <v>       0.00000000      -2.75766913       2.75766913 </v>
    </varray>
    <i name="volume">     41.94270792 </i>
    <varray name="rec_basis" >
     <v>       0.18131254      -0.18131254      -0.18131254 </v>
     <v>       0.18131254       0.18131254       0.18131254 </v>
     <v>      -0.18131254      -0.18131254       0.18131254 </v>
    </varray>
   </crystal>
   <varray name="positions" >
    <v>       0.75000000       0.75000000       0.75000000 </v>
    <v>       0.00000000       0.00000000       0.00000000 </v>
   </varray>
  </structure>
  <varray name="primitive_index" >
   <v type="int" >        1 </v>
   <v type="int" >        2 </v>
  </varray>
 </primitive_cell>
 <kpoints>
  <generation param="Gamma">
   <v type="int" name="divisions">       5        5        5 </v>
   <v name="usershift">      0.00000000       0.00000000       0.00000000 </v>
   <v name="genvec1">      0.20000000       0.00000000       0.00000000 </v>
   <v name="genvec2">      0.00000000       0.20000000       0.00000000 </v>
   <v name="genvec3">      0.00000000       0.00000000       0.20000000 </v>
   <v name="shift">      0.00000000       0.00000000       0.00000000 </v>
  </generation>
  <varray name="kpointlist" >
   <v>       0.00000000       0.00000000       0.00000000 </v>
   <v>       0.20000000       0.00000000       0.00000000 </v>
   <v>       0.40000000       0.00000000       0.00000000 </v>
   <v>       0.20000000       0.20000000       0.00000000 </v>
   <v>       0.40000000       0.20000000       0.00000000 </v>
   <v>       0.40000000       0.40000000       0.00000000 </v>
   <v>       0.20000000       0.20000000       0.20000000 </v>
   <v>       0.40000000       0.20000000       0.20000000 </v>
   <v>       0.40000000       0.40000000       0.20000000 </v>
   <v>       0.40000000       0.40000000       0.40000000 </v>
  </varray>
  <varray name="weights" >
   <v>       0.00800000 </v>
   <v>       0.04800000 </v>
   <v>       0.04800000 </v>
   <v>       0.09600000 </v>
   <v>       0.19200000 </v>
   <v>       0.09600000 </v>
   <v>       0.06400000 </v>
   <v>       0.19200000 </v>
   <v>       0.19200000 </v>
   <v>       0.06400000 </v>
  </varray>
 </kpoints>
 <parameters>
  <separator name="general" >
   <i type="string" name="SYSTEM">unknown system</i>
   <i type="logical" name="LCOMPAT"> F  </i>
  </separator>
  <separator name="electronic" >
   <i type="string" name="PREC">accura</i>
   <i name="ENMAX">    520.00000000</i>
   <i name="ENAUG">    322.06900000</i>
   <i name="EDIFF">      0.00000100</i>
   <i type="int" name="IALGO">    68</i>
   <i type="int" name="IWAVPR">    10</i>
   <i type="int" name="NBANDS">    24</i>
   <i type="int" name="NBANDSLOW">    -1</i>
   <i type="int" name="NBANDSHIGH">    -1</i>
   <i name="NELECT">     32.00000000</i>
   <i type="int" name="TURBO">     0</i>
   <i type="int" name="IRESTART">     0</i>
   <i type="int" name="NREBOOT">     0</i>
   <i type="int" name="NMIN">     0</i>
   <i name="EREF">      0.00000000</i>
   <separator name="electronic smearing" >
    <i type="int" name="ISMEAR">     1</i>
    <i name="SIGMA">      0.20000000</i>
    <i name="KSPACING">      0.50000000</i>
    <i type="logical" name="KGAMMA"> T  </i>
    <i type="logical" name="KBLOWUP"> T  </i>
   </separator>
   <separator name="electronic projectors" >
    <i type="logical" name="LREAL"> F  </i>
    <v name="ROPT">      0.00000000</v>
    <i type="int" name="LMAXPAW">  -100</i>
    <i type="int" name="LMAXMIX">     2</i>
    <i type="logical" name="NLSPLINE"> F  </i>
   </separator>
   <separator name="electronic startup" >
    <i type="int" name="ISTART">     0</i>
    <i type="int" name="ICHARG">     2</i>
    <i type="int" name="INIWAV">     1</i>
   </separator>
   <separator name="electronic spin" >
    <i type="int" name="ISPIN">     1</i>
    <i type="logical" name="LNONCOLLINEAR"> F  </i>
    <v name="MAGMOM">      1.00000000      1.00000000      1.00000000      1.00000000      1.00000000      1.00000000      1.00000000      1.00000000</v>
    <i name="NUPDOWN">     -1.00000000</i>
    <i type="logical" name="LSORBIT"> F  </i>
    <v name="SAXIS">      0.00000000      0.00000000      1.00000000</v>
    <i type="logical" name="LSPIRAL"> F  </i>
    <v name="QSPIRAL">      0.00000000      0.00000000      0.00000000</v>
    <i type="logical" name="LZEROZ"> F  </i>
   </separator>
   <separator name="electronic exchange-correlation" >
    <i type="logical" name="LASPH"> T  </i>
    <i type="logical" name="LMETAGGA"> F  </i>
   </separator>
   <separator name="electronic convergence" >
    <i type="int" name="NELM">   100</i>
    <i type="int" name="NELMDL">     0</i>
    <i type="int" name="NELMIN">     2</i>
    <i name="ENINI">    520.00000000</i>
    <separator name="electronic convergence detail" >
     <i type="logical" name="LDIAG"> T  </i>
     <i type="logical" name="LSUBROT"> F  </i>
     <i name="WEIMIN">      0.00000000</i>
     <i name="EBREAK">      0.00000001</i>
     <i name="DEPER">      0.30000000</i>
     <i type="int" name="NRMM">     4</i>
     <i name="TIME">      0.40000000</i>
    </separator>
   </separator>
   <separator name="electronic mixer" >
    <i name="AMIX">      0.40000000</i>
    <i name="BMIX">      1.00000000</i>
    <i name="AMIN">      0.10000000</i>
    <i name="AMIX_MAG">      1.60000000</i>
    <i name="BMIX_MAG">      1.00000000</i>
    <separator name="electronic mixer details" >
     <i type="int" name="IMIX">     4</i>
     <i type="logical" name="MIXFIRST"> F  </i>
     <i type="int" name="MAXMIX">   -45</i>
     <i name="WC">    100.00000000</i>
     <i type="int" name="INIMIX">     1</i>
     <i type="int" name="MIXPRE">     1</i>
     <i type="int" name="MREMOVE">     5</i>
    </separator>
   </separator>
   <separator name="electronic dipolcorrection" >
    <i type="logical" name="LDIPOL"> F  </i>
    <i type="logical" name="LMONO"> F  </i>
    <i type="int" name="IDIPOL">     0</i>
    <i name="EPSILON">      1.00000000</i>
    <v name="DIPOL">   -100.00000000   -100.00000000   -100.00000000</v>
    <i name="EFIELD">      0.00000000</i>
   </separator>
  </separator>
  <separator name="grids" >
   <i type="int" name="NGX">    42</i>
   <i type="int" name="NGY">    42</i>
   <i type="int" name="NGZ">    42</i>
   <i type="int" name="NGXF">    84</i>
   <i type="int" name="NGYF">    84</i>
   <i type="int" name="NGZF">    84</i>
   <i type="logical" name="ADDGRID"> F  </i>
  </separator>
  <separator name="ionic" >
   <i type="int" name="NSW">     0</i>
   <i type="int" name="IBRION">    -1</i>
   <i type="int" name="MDALGO">     0</i>
   <i type="int" name="ISIF">     2</i>
   <i name="PSTRESS">      0.00000000</i>
   <i name="EDIFFG">      0.00001000</i>
   <i type="int" name="NFREE">     0</i>
   <i name="POTIM">      0.50000000</i>
   <i name="SMASS">     -3.00000000</i>
   <i name="SCALEE">      1.00000000</i>
  </separator>
  <separator name="ionic md" >
   <i name="TEBEG">      0.00010000</i>
   <i name="TEEND">      0.00010000</i>
   <i type="int" name="NBLOCK">     1</i>
   <i type="int" name="KBLOCK">     1</i>
   <i type="int" name="NPACO">   256</i>
   <i name="APACO">     16.00000000</i>
  </separator>
  <separator name="symmetry" >
   <i type="int" name="ISYM">     2</i>
   <i name="SYMPREC">      0.00001000</i>
  </separator>
  <separator name="dos" >
   <i type="int" name="LORBIT">     0</i>
   <v name="RWIGS">     -1.00000000</v>
   <i type="int" name="NEDOS">   301</i>
   <i name="EMIN">     10.00000000</i>
   <i name="EMAX">    -10.00000000</i>
   <i name="EFERMI">      0.00000000</i>
  </separator>
  <separator name="writing" >
   <i type="int" name="NWRITE">     2</i>
   <i type="logical" name="LWAVE"> F  </i>
   <i type="logical" name="LDOWNSAMPLE"> F  </i>
   <i type="logical" name="LCHARG"> F  </i>
   <i type="logical" name="LPARD"> F  </i>
   <i type="logical" name="LVTOT"> F  </i>
   <i type="logical" name="LVHAR"> F  </i>
   <i type="logical" name="LELF"> F  </i>
   <i type="logical" name="LOPTICS"> F  </i>
   <v name="STM">      0.00000000      0.00000000      0.00000000      0.00000000      0.00000000      0.00000000      0.00000000</v>
  </separator>
  <separator name="performance" >
   <i type="int" name="NPAR">     4</i>
   <i type="int" name="NSIM">     4</i>
   <i type="int" name="NBLK">    -1</i>
   <i type="logical" name="LPLANE"> T  </i>
   <i type="logical" name="LSCALAPACK"> T  </i>
   <i type="logical" name="LSCAAWARE"> F  </i>
   <i type="logical" name="LSCALU"> F  </i>
   <i type="logical" name="LASYNC"> F  </i>
   <i type="logical" name="LORBITALREAL"> F  </i>
  </separator>
  <separator name="miscellaneous" >
   <i type="int" name="IDIOT">     3</i>
   <i type="int" name="PHON_NSTRUCT">    -1</i>
   <i type="logical" name="LMUSIC"> F  </i>
   <v name="POMASS">     28.08500000</v>
   <v name="DARWINR">      0.00000000</v>
   <v name="DARWINV">      1.00000000</v>
   <i type="logical" name="LCORR"> T  </i>
  </separator>
  <i type="logical" name="GGA_COMPAT"> T  </i>
  <i type="logical" name="LBERRY"> F  </i>
  <i type="int" name="ICORELEVEL">     0</i>
  <i type="logical" name="LDAU"> F  </i>
  <i type="int" name="I_CONSTRAINED_M">     0</i>
  <separator name="electronic exchange-correlation" >
   <i type="string" name="GGA">--</i>
   <i type="int" name="VOSKOWN">     0</i>
   <i type="logical" name="LHFCALC"> F  </i>
   <i type="string" name="PRECFOCK"></i>
   <i type="logical" name="LSYMGRAD"> F  </i>
   <i type="logical" name="LHFONE"> F  </i>
   <i type="logical" name="LRHFCALC"> F  </i>
   <i type="logical" name="LTHOMAS"> F  </i>
   <i type="logical" name="LMODELHF"> F  </i>
   <i type="logical" name="LFOCKACE"> F  </i>
   <i name="ENCUT4O">     -1.00000000</i>
   <i type="int" name="EXXOEP">     0</i>
   <i type="int" name="FOURORBIT">     0</i>
   <i name="AEXX">      0.00000000</i>
   <i name="HFALPHA">      0.00000000</i>
   <i name="MCALPHA">      0.00000000</i>
   <i name="ALDAX">      1.00000000</i>
   <i name="AGGAX">      1.00000000</i>
   <i name="ALDAC">      1.00000000</i>
   <i name="AGGAC">      1.00000000</i>
   <i type="int" name="NKREDX">     1</i>
   <i type="int" name="NKREDY">     1</i>
   <i type="int" name="NKREDZ">     1</i>
   <i type="logical" name="SHIFTRED"> F  </i>
   <i type="logical" name="ODDONLY"> F  </i>
   <i type="logical" name="EVENONLY"> F  </i>
   <i type="int" name="LMAXFOCK">     0</i>
   <i type="int" name="NMAXFOCKAE">     0</i>
   <i type="logical" name="LFOCKAEDFT"> F  </i>
   <i name="HFSCREEN">      0.00000000</i>
   <i name="HFSCREENC">      0.00000000</i>
   <i type="int" name="NBANDSGWLOW">     0</i>
  </separator>
  <separator name="vdW DFT" >
   <i type="logical" name="LUSE_VDW"> F  </i>
   <i name="Zab_VDW">     -0.84910000</i>
   <i name="PARAM1">      0.12340000</i>
   <i name="PARAM2">      1.00000000</i>
   <i name="PARAM3">      0.00000000</i>
  </separator>
  <separator name="model GW" >
   <i type="int" name="MODEL_GW">     0</i>
   <i name="MODEL_EPS0">     12.58281238</i>
   <i name="MODEL_ALPHA">      1.00000000</i>
  </separator>
  <separator name="linear response parameters" >
   <i type="logical" name="LEPSILON"> F  </i>
   <i type="logical" name="LRPA"> F  </i>
   <i type="logical" name="LNABLA"> F  </i>
   <i type="logical" name="LVEL"> F  </i>
   <i type="int" name="KINTER">     0</i>
   <i name="CSHIFT">      0.10000000</i>
   <i name="OMEGAMAX">     -1.00000000</i>
   <i name="DEG_THRESHOLD">      0.00200000</i>
   <i name="RTIME">     -0.10000000</i>
   <i name="WPLASMAI">      0.00000000</i>
   <v name="DFIELD">      0.00000000      0.00000000      0.00000000</v>
   <v name="WPLASMA">      0.00000000      0.00000000      0.00000000      0.00000000      0.00000000      0.00000000      0.00000000      0.00000000      0.00000000</v>
  </separator>
  <separator name="orbital magnetization" >
   <i type="logical" name="NUCIND"> F  </i>
   <v name="MAGPOS">      0.00000000      0.00000000      0.00000000</v>
   <i type="logical" name="LNICSALL"> T  </i>
   <i type="logical" name="ORBITALMAG"> F  </i>
   <i type="logical" name="LMAGBLOCH"> F  </i>
   <i type="logical" name="LCHIMAG"> F  </i>
   <i type="logical" name="LGAUGE"> T  </i>
   <i type="int" name="MAGATOM">     0</i>
   <v name="MAGDIPOL">      0.00000000      0.00000000      0.00000000</v>
   <v name="AVECCONST">      0.00000000      0.00000000      0.00000000</v>
  </separator>
  <separator name="response functions" >
   <i type="logical" name="LFINITE_TEMPERATURE"> F  </i>
   <i type="logical" name="LADDER"> F  </i>
   <i type="logical" name="LRPAFORCE"> F  </i>
   <i type="logical" name="LFXC"> F  </i>
   <i type="logical" name="LHARTREE"> T  </i>
   <i type="int" name="IBSE">     0</i>
   <v type="int" name="KPOINT">    -1     0     0     0</v>
   <i type="logical" name="LTCTC"> F  </i>
   <i type="logical" name="LTCTE"> F  </i>
   <i type="logical" name="LTETE"> F  </i>
   <i type="logical" name="LTRIPLET"> F  </i>
   <i type="logical" name="LFXCEPS"> F  </i>
   <i type="logical" name="LFXHEG"> F  </i>
   <i type="int" name="NATURALO">     2</i>
   <i type="logical" name="LHOLEGF"> F  </i>
   <i type="logical" name="L2ORDER"> F  </i>
   <i type="logical" name="LDMP1"> F  </i>
   <i type="logical" name="LMP2LT"> F  </i>
   <i type="logical" name="LSMP2LT"> F  </i>
   <i type="logical" name="LGWLF"> F  </i>
   <i name="ENCUTGW">     -2.00000000</i>
   <i name="ENCUTGWSOFT">     -2.00000000</i>
   <i name="ENCUTLF">     -1.00000000</i>
   <i type="logical" name="LESF_SPLINES"> F  </i>
   <i type="int" name="LMAXMP2">    -1</i>
   <i name="SCISSOR">      0.00000000</i>
   <i type="int" name="NOMEGA">     0</i>
   <i type="int" name="NOMEGAR">     0</i>
   <i type="int" name="NBANDSGW">    -1</i>
   <i type="int" name="NBANDSO">    -1</i>
   <i type="int" name="NBANDSV">    -1</i>
   <i type="int" name="NELM">   100</i>
   <i type="int" name="NELMHF">     1</i>
   <i type="int" name="DIM">     3</i>
   <i type="int" name="IESPILON">     4</i>
   <i type="int" name="ANTIRES">     0</i>
   <i name="OMEGAMAX">    -30.00000000</i>
   <i name="OMEGAMIN">    -30.00000000</i>
   <i name="OMEGATL">   -200.00000000</i>
   <i type="int" name="OMEGAGRID">     0</i>
   <i name="CSHIFT">     -0.10000000</i>
   <i type="logical" name="LSELFENERGY"> F  </i>
   <i type="logical" name="LSPECTRAL"> F  </i>
   <i type="logical" name="LSPECTRALGW"> F  </i>
   <i type="logical" name="LSINGLES"> F  </i>
   <i type="logical" name="LFERMIGW"> F  </i>
   <i type="logical" name="ODDONLYGW"> F  </i>
   <i type="logical" name="EVENONLYGW"> F  </i>
   <i type="int" name="NKREDLFX">     1</i>
   <i type="int" name="NKREDLFY">     1</i>
   <i type="int" name="NKREDLFZ">     1</i>
   <i type="int" name="MAXMEM">  2800</i>
   <i type="int" name="TELESCOPE">     0</i>
   <i type="int" name="NTAUPAR">    -1</i>
   <i type="int" name="NOMEGAPAR">    -1</i>
   <i name="DAMP_NEWTON">      0.80000001</i>
   <i name="LAMBDA">      1.00000000</i>
  </separator>
  <separator name="External order field" >
   <i name="OFIELD_KAPPA">      0.00000000</i>
   <v name="OFIELD_K">      0.00000000      0.00000000      0.00000000</v>
   <i name="OFIELD_Q6_NEAR">      0.00000000</i>
   <i name="OFIELD_Q6_FAR">      0.00000000</i>
   <i name="OFIELD_A">      0.00000000</i>
  </separator>
 </parameters>
 <atominfo>
  <atoms>       8 </atoms>
  <types>       1 </types>
  <array name="atoms" >
   <dimension dim="1">ion</dimension>
   <field type="string">element</field>
   <field type="int">atomtype</field>
   <set>
    <rc><c>Si</c><c>   1</c></rc>
    <rc><c>Si</c><c>   1</c></rc>
    <rc><c>Si</c><c>   1</c></rc>
    <rc><c>Si</c><c>   1</c></rc>
    <rc><c>Si</c><c>   1</c></rc>
    <rc><c>Si</c><c>   1</c></rc>
    <rc><c>Si</c><c>   1</c></rc>
    <rc><c>Si</c><c>   1</c></rc>
   </set>
  </array>
  <array name="atomtypes" >
   <dimension dim="1">type</dimension>
   <field type="int">atomspertype</field>
   <field type="string">element</field>
   <field>mass</field>
   <field>valence</field>
   <field type="string">pseudopotential</field>
   <set>
    <rc><c>   8</c><c>Si</c><c>     28.08500000</c><c>      4.00000000</c><c> PAW_PBE Si 05Jan2001                   </c></rc>
   </set>
  </array>
 </atominfo>
 <structure name="initialpos" >
  <crystal>
   <varray name="basis" >
    <v>       5.51533825       0.00000000       0.00000000 </v>
    <v>       0.00000000       5.51533825       0.00000000 </v>
    <v>       0.00000000       0.00000000       5.51533825 </v>
   </varray>
   <i name="volume">    167.77083169 </i>
   <varray name="rec_basis" >
    <v>       0.18131254      -0.00000000       0.00000000 </v>
    <v>       0.00000000       0.18131254       0.00000000 </v>
    <v>      -0.00000000      -0.00000000       0.18131254 </v>
   </varray>
  </crystal>
  <varray name="positions" >
   <v>       0.75000000       0.75000000       0.25000000 </v>
   <v>       0.00000000       0.50000000       0.50000000 </v>
   <v>       0.75000000       0.25000000       0.75000000 </v>
   <v>       0.00000000       0.00000000       0.00000000 </v>
   <v>       0.25000000       0.75000000       0.75000000 </v>
   <v>       0.50000000       0.50000000       0.00000000 </v>
   <v>       0.25000000       0.25000000       0.25000000 </v>
   <v>       0.50000000       0.00000000       0.50000000 </v>
  </varray>
 </structure>
 <calculation>
  <scstep>
   <time name="dav">    0.42    0.42</time>
   <time name="total">    0.52    0.53</time>
   <energy>
    <i name="alphaZ">     12.84154698 </i>
    <i name="ewald">   -900.10797417 </i>
    <i name="hartreedc">    -46.85750925 </i>
    <i name="XCdc">    -75.13291751 </i>
    <i name="pawpsdc">    263.82083246 </i>
    <i name="pawaedc">   -123.07410713 </i>
    <i name="eentropy">     -0.02053978 </i>
    <i name="bandstr">    112.74325514 </i>
    <i name="atom">    824.53081094 </i>
    <i name="e_fr_energy">     68.74339769 </i>
    <i name="e_wo_entrp">     68.76393746 </i>
    <i name="e_0_energy">     68.75024428 </i>
   </energy>
  </scstep>
  <scstep>
   <time name="dav">    0.52    0.52</time>
   <time name="total">    0.52    0.52</time>
   <energy>
    <i name="e_fr_energy">    -38.91136579 </i>
    <i name="e_wo_entrp">    -38.91372971 </i>
    <i name="e_0_energy">    -38.91215376 </i>
   </energy>
  </scstep>
  <scstep>
   <time name="dav">    0.50    0.50</time>
   <time name="total">    0.50    0.50</time>
   <energy>
    <i name="e_fr_energy">    -43.89328498 </i>
    <i name="e_wo_entrp">    -43.89507601 </i>
    <i name="e_0_energy">    -43.89388199 </i>
   </energy>
  </scstep>
  <scstep>
   <time name="dav">    0.50    0.50</time>
   <time name="total">    0.50    0.50</time>
   <energy>
    <i name="e_fr_energy">    -43.98200006 </i>
    <i name="e_wo_entrp">    -43.98379570 </i>
    <i name="e_0_energy">    -43.98259861 </i>
   </energy>
  </scstep>
  <scstep>
   <time name="dav">    0.51    0.51</time>
   <time name="total">    0.58    0.58</time>
   <energy>
    <i name="e_fr_energy">    -43.98393154 </i>
    <i name="e_wo_entrp">    -43.98573009 </i>
    <i name="e_0_energy">    -43.98453105 </i>
   </energy>
  </scstep>
  <scstep>
   <time name="diag">    0.09    0.09</time>
   <time name="diis">    0.34    0.34</time>
   <time name="orth">    0.00    0.00</time>
   <time name="total">    0.60    0.60</time>
   <energy>
    <i name="e_fr_energy">    -43.55906965 </i>
    <i name="e_wo_entrp">    -43.56085499 </i>
    <i name="e_0_energy">    -43.55966476 </i>
   </energy>
  </scstep>
  <scstep>
   <time name="diag">    0.09    0.09</time>
   <time name="diis">    0.36    0.36</time>
   <time name="orth">    0.00    0.00</time>
   <time name="total">    0.61    0.61</time>
   <energy>
    <i name="e_fr_energy">    -43.35642832 </i>
    <i name="e_wo_entrp">    -43.35822637 </i>
    <i name="e_0_energy">    -43.35702767 </i>
   </energy>
  </scstep>
  <scstep>
   <time name="diag">    0.09    0.09</time>
   <time name="diis">    0.36    0.36</time>
   <time name="orth">    0.00    0.00</time>
   <time name="total">    0.61    0.61</time>
   <energy>
    <i name="e_fr_energy">    -43.36491061 </i>
    <i name="e_wo_entrp">    -43.36668669 </i>
    <i name="e_0_energy">    -43.36550264 </i>
   </energy>
  </scstep>
  <scstep>
   <time name="diag">    0.09    0.09</time>
   <time name="diis">    0.39    0.39</time>
   <time name="orth">    0.01    0.01</time>
   <time name="total">    0.64    0.64</time>
   <energy>
    <i name="e_fr_energy">    -43.36584541 </i>
    <i name="e_wo_entrp">    -43.36762370 </i>
    <i name="e_0_energy">    -43.36643817 </i>
   </energy>
  </scstep>
  <scstep>
   <time name="diag">    0.09    0.09</time>
   <time name="diis">    0.37    0.37</time>
   <time name="orth">    0.00    0.00</time>
   <time name="total">    0.62    0.62</time>
   <energy>
    <i name="e_fr_energy">    -43.36621594 </i>
    <i name="e_wo_entrp">    -43.36798982 </i>
    <i name="e_0_energy">    -43.36680723 </i>
   </energy>
  </scstep>
  <scstep>
   <time name="diag">    0.09    0.09</time>
   <time name="diis">    0.40    0.40</time>
   <time name="orth">    0.00    0.00</time>
   <time name="total">    0.65    0.65</time>
   <energy>
    <i name="e_fr_energy">    -43.36623221 </i>
    <i name="e_wo_entrp">    -43.36800719 </i>
    <i name="e_0_energy">    -43.36682387 </i>
   </energy>
  </scstep>
  <scstep>
   <time name="diag">    0.09    0.09</time>
   <time name="diis">    0.41    0.41</time>
   <time name="orth">    0.00    0.00</time>
   <time name="total">    0.66    0.66</time>
   <energy>
    <i name="e_fr_energy">    -43.36625461 </i>
    <i name="e_wo_entrp">    -43.36802959 </i>
    <i name="e_0_energy">    -43.36684627 </i>
   </energy>
  </scstep>
  <scstep>
   <time name="diag">    0.09    0.09</time>
   <time name="diis">    0.37    0.37</time>
   <time name="orth">    0.00    0.00</time>
   <time name="total">    0.62    0.62</time>
   <energy>
    <i name="e_fr_energy">    -43.36625640 </i>
    <i name="e_wo_entrp">    -43.36803108 </i>
    <i name="e_0_energy">    -43.36684796 </i>
   </energy>
  </scstep>
  <scstep>
   <time name="diag">    0.09    0.09</time>
   <time name="diis">    0.34    0.34</time>
   <time name="orth">    0.00    0.00</time>
   <time name="total">    0.59    0.59</time>
   <energy>
    <i name="e_fr_energy">    -43.36625767 </i>
    <i name="e_wo_entrp">    -43.36803253 </i>
    <i name="e_0_energy">    -43.36684929 </i>
   </energy>
  </scstep>
  <scstep>
   <time name="diag">    0.10    0.10</time>
   <time name="diis">    0.28    0.28</time>
   <time name="orth">    0.00    0.00</time>
   <time name="total">    0.47    0.47</time>
   <energy>
    <i name="alphaZ">     12.84154698 </i>
    <i name="ewald">   -900.10797417 </i>
    <i name="hartreedc">    -61.93075345 </i>
    <i name="XCdc">    -72.70139964 </i>
    <i name="pawpsdc">    291.36651902 </i>
    <i name="pawaedc">   -151.35669959 </i>
    <i name="eentropy">      0.00177486 </i>
    <i name="bandstr">     13.98991727 </i>
    <i name="atom">    824.53081094 </i>
    <i name="e_fr_energy">    -43.36625777 </i>
    <i name="e_wo_entrp">    -43.36803263 </i>
    <i name="e_0_energy">    -43.36684939 </i>
   </energy>
  </scstep>
  <structure>
   <crystal>
    <varray name="basis" >
     <v>       5.51533825       0.00000000       0.00000000 </v>
     <v>       0.00000000       5.51533825       0.00000000 </v>
     <v>       0.00000000       0.00000000       5.51533825 </v>
    </varray>
    <i name="volume">    167.77083169 </i>
    <varray name="rec_basis" >
     <v>       0.18131254      -0.00000000       0.00000000 </v>
     <v>       0.00000000       0.18131254       0.00000000 </v>
     <v>      -0.00000000      -0.00000000       0.18131254 </v>
    </varray>
   </crystal>
   <varray name="positions" >
    <v>       0.75000000       0.75000000       0.25000000 </v>
    <v>       0.00000000       0.50000000       0.50000000 </v>
    <v>       0.75000000       0.25000000       0.75000000 </v>
    <v>       0.00000000       0.00000000       0.00000000 </v>
    <v>       0.25000000       0.75000000       0.75000000 </v>
    <v>       0.50000000       0.50000000       0.00000000 </v>
    <v>       0.25000000       0.25000000       0.25000000 </v>
    <v>       0.50000000       0.00000000       0.50000000 </v>
   </varray>
  </structure>
  <varray name="forces" >
   <v>      -0.00000000       0.00000000      -0.00000000 </v>
   <v>       0.00000000      -0.00000000       0.00000000 </v>
   <v>      -0.00000000      -0.00000000      -0.00000000 </v>
   <v>       0.00000000      -0.00000000       0.00000000 </v>
   <v>      -0.00000000      -0.00000000      -0.00000000 </v>
   <v>       0.00000000       0.00000000       0.00000000 </v>
   <v>      -0.00000000       0.00000000      -0.00000000 </v>
   <v>       0.00000000      -0.00000000       0.00000000 </v>
  </varray>
  <varray name="stress" >
   <v>     -21.50266444      -0.00000000      -0.00000000 </v>
   <v>      -0.00000000     -21.50266444       0.00000000 </v>
   <v>      -0.00000000      -0.00000000     -21.50266444 </v>
  </varray>
  <energy>
   <i name="e_fr_energy">    -43.36625777 </i>
   <i name="e_wo_entrp">    -43.36803263 </i>
   <i name="e_0_energy">    -43.36684939 </i>
  </energy>
  <time name="totalsc">    9.24    9.25</time>
  <eigenvalues>
   <array>
    <dimension dim="1">band</dimension>
    <dimension dim="2">kpoint</dimension>
    <dimension dim="3">spin</dimension>
    <field>eigene</field>
    <field>occ</field>
    <set>
     <set comment="spin 1">
      <set comment="kpoint 1">
       <r>   -6.2780    1.0000 </r>
       <r>   -2.3004    1.0000 </r>
       <r>   -2.3004    1.0000 </r>
       <r>   -2.3004    1.0000 </r>
       <r>   -2.3004    1.0000 </r>
       <r>   -2.3004    1.0000 </r>
       <r>   -2.3004    1.0000 </r>
       <r>    2.6382    1.0000 </r>
       <r>    2.6382    1.0000 </r>
       <r>    2.6382    1.0000 </r>
       <r>    2.6382    1.0000 </r>
       <r>    2.6382    1.0000 </r>
       <r>    2.6382    1.0000 </r>
       <r>    5.3667    0.8689 </r>
       <r>    5.3667    0.8689 </r>
       <r>    5.3667    0.8689 </r>
       <r>    6.1655   -0.0000 </r>
       <r>    6.1655   -0.0000 </r>
       <r>    6.1655   -0.0000 </r>
       <r>    6.1655   -0.0000 </r>
       <r>    6.1655   -0.0000 </r>
       <r>    6.1655   -0.0000 </r>
       <r>    7.9120   -0.0000 </r>
       <r>    7.9121   -0.0000 </r>
      </set>
      <set comment="kpoint 2">
       <r>   -6.1100    1.0000 </r>
       <r>   -3.6741    1.0000 </r>
       <r>   -2.2534    1.0000 </r>
       <r>   -2.2534    1.0000 </r>
       <r>   -2.2534    1.0000 </r>
       <r>   -2.2534    1.0000 </r>
       <r>   -0.7269    1.0000 </r>
       <r>    2.2598    1.0000 </r>
       <r>    2.2598    1.0000 </r>
       <r>    2.2598    1.0000 </r>
       <r>    2.2598    1.0000 </r>
       <r>    2.7901    1.0000 </r>
       <r>    2.7901    1.0000 </r>
       <r>    4.3859    1.0000 </r>
       <r>    4.8221    1.0000 </r>
       <r>    4.8221    1.0000 </r>
       <r>    6.0265   -0.0003 </r>
       <r>    6.7590   -0.0000 </r>
       <r>    6.9780   -0.0000 </r>
       <r>    6.9780   -0.0000 </r>
       <r>    6.9780   -0.0000 </r>
       <r>    6.9780   -0.0000 </r>
       <r>    7.5490   -0.0000 </r>
       <r>    8.6632   -0.0000 </r>
      </set>
      <set comment="kpoint 3">
       <r>   -5.6099    1.0000 </r>
       <r>   -4.7901    1.0000 </r>
       <r>   -2.1713    1.0000 </r>
       <r>   -2.1713    1.0000 </r>
       <r>   -2.1713    1.0000 </r>
       <r>   -2.1713    1.0000 </r>
       <r>    0.9711    1.0000 </r>
       <r>    1.7823    1.0000 </r>
       <r>    1.7823    1.0000 </r>
       <r>    1.7823    1.0000 </r>
       <r>    1.7823    1.0000 </r>
       <r>    2.7136    1.0000 </r>
       <r>    3.2379    1.0000 </r>
       <r>    3.2379    1.0000 </r>
       <r>    3.9505    1.0000 </r>
       <r>    3.9505    1.0000 </r>
       <r>    6.2865   -0.0000 </r>
       <r>    6.8572   -0.0000 </r>
       <r>    7.8238   -0.0000 </r>
       <r>    8.7820   -0.0000 </r>
       <r>    8.7820   -0.0000 </r>
       <r>    8.7820   -0.0000 </r>
       <r>    8.7820   -0.0000 </r>
       <r>    9.1617   -0.0000 </r>
      </set>
      <set comment="kpoint 4">
       <r>   -5.9443    1.0000 </r>
       <r>   -3.5632    1.0000 </r>
       <r>   -3.5632    1.0000 </r>
       <r>   -2.5337    1.0000 </r>
       <r>   -1.9333    1.0000 </r>
       <r>   -0.8116    1.0000 </r>
       <r>   -0.8116    1.0000 </r>
       <r>    1.5066    1.0000 </r>
       <r>    2.2986    1.0000 </r>
       <r>    2.2986    1.0000 </r>
       <r>    2.6134    1.0000 </r>
       <r>    2.6134    1.0000 </r>
       <r>    2.9026    1.0000 </r>
       <r>    3.3390    1.0000 </r>
       <r>    4.2688    1.0000 </r>
       <r>    5.1926    1.0329 </r>
       <r>    6.4687   -0.0000 </r>
       <r>    6.8894   -0.0000 </r>
       <r>    6.8894   -0.0000 </r>
       <r>    7.4855   -0.0000 </r>
       <r>    7.4855   -0.0000 </r>
       <r>    8.1793   -0.0000 </r>
       <r>    8.2597   -0.0000 </r>
       <r>    8.4265   -0.0000 </r>
      </set>
      <set comment="kpoint 5">
       <r>   -5.4517    1.0000 </r>
       <r>   -4.6477    1.0000 </r>
       <r>   -3.2627    1.0000 </r>
       <r>   -2.8754    1.0000 </r>
       <r>   -1.5230    1.0000 </r>
       <r>   -1.0966    1.0000 </r>
       <r>    0.6372    1.0000 </r>
       <r>    1.2480    1.0000 </r>
       <r>    1.5815    1.0000 </r>
       <r>    2.0140    1.0000 </r>
       <r>    2.5249    1.0000 </r>
       <r>    2.6916    1.0000 </r>
       <r>    2.7824    1.0000 </r>
       <r>    3.3760    1.0000 </r>
       <r>    3.3884    1.0000 </r>
       <r>    4.4288    1.0000 </r>
       <r>    7.1616   -0.0000 </r>
       <r>    7.5502   -0.0000 </r>
       <r>    7.7047   -0.0000 </r>
       <r>    8.4337   -0.0000 </r>
       <r>    8.7311   -0.0000 </r>
       <r>    8.9059   -0.0000 </r>
       <r>    9.1550   -0.0000 </r>
       <r>    9.6600   -0.0000 </r>
      </set>
      <set comment="kpoint 6">
       <r>   -4.9848    1.0000 </r>
       <r>   -4.2359    1.0000 </r>
       <r>   -4.2359    1.0000 </r>
       <r>   -3.6086    1.0000 </r>
       <r>   -0.8401    1.0000 </r>
       <r>   -0.0814    1.0000 </r>
       <r>   -0.0814    1.0000 </r>
       <r>    0.9491    1.0000 </r>
       <r>    1.3095    1.0000 </r>
       <r>    1.8576    1.0000 </r>
       <r>    1.8576    1.0000 </r>
       <r>    2.5102    1.0000 </r>
       <r>    3.6283    1.0000 </r>
       <r>    3.6579    1.0000 </r>
       <r>    3.6579    1.0000 </r>
       <r>    4.5515    1.0000 </r>
       <r>    7.2929   -0.0000 </r>
       <r>    8.1584   -0.0000 </r>
       <r>    8.4918   -0.0000 </r>
       <r>    8.4918   -0.0000 </r>
       <r>    8.9753   -0.0000 </r>
       <r>    8.9753   -0.0000 </r>
       <r>    9.2947   -0.0000 </r>
       <r>    9.5853   -0.0000 </r>
      </set>
      <set comment="kpoint 7">
       <r>   -5.7813    1.0000 </r>
       <r>   -3.4888    1.0000 </r>
       <r>   -3.4888    1.0000 </r>
       <r>   -3.4888    1.0000 </r>
       <r>   -0.9581    1.0000 </r>
       <r>   -0.9581    1.0000 </r>
       <r>   -0.9581    1.0000 </r>
       <r>    1.8573    1.0000 </r>
       <r>    1.8573    1.0000 </r>
       <r>    1.8573    1.0000 </r>
       <r>    2.4112    1.0000 </r>
       <r>    3.0449    1.0000 </r>
       <r>    3.0449    1.0000 </r>
       <r>    3.0449    1.0000 </r>
       <r>    4.8122    1.0000 </r>
       <r>    4.8122    1.0000 </r>
       <r>    6.6566   -0.0000 </r>
       <r>    6.6566   -0.0000 </r>
       <r>    6.6566   -0.0000 </r>
       <r>    7.4303   -0.0000 </r>
       <r>    8.6851   -0.0000 </r>
       <r>    8.6936   -0.0000 </r>
       <r>    8.7343   -0.0000 </r>
       <r>    8.7343   -0.0000 </r>
      </set>
      <set comment="kpoint 8">
       <r>   -5.2987    1.0000 </r>
       <r>   -4.5176    1.0000 </r>
       <r>   -3.3481    1.0000 </r>
       <r>   -3.3481    1.0000 </r>
       <r>   -1.2306    1.0000 </r>
       <r>   -1.2306    1.0000 </r>
       <r>    0.1507    1.0000 </r>
       <r>    1.2365    1.0000 </r>
       <r>    1.7002    1.0000 </r>
       <r>    1.7002    1.0000 </r>
       <r>    2.8436    1.0000 </r>
       <r>    3.0152    1.0000 </r>
       <r>    3.0152    1.0000 </r>
       <r>    3.4592    1.0000 </r>
       <r>    4.0965    1.0000 </r>
       <r>    4.1262    1.0000 </r>
       <r>    7.1644   -0.0000 </r>
       <r>    7.6702   -0.0000 </r>
       <r>    7.7156   -0.0000 </r>
       <r>    7.7156   -0.0000 </r>
       <r>    8.6476   -0.0000 </r>
       <r>    9.4047   -0.0000 </r>
       <r>    9.5918   -0.0000 </r>
       <r>    9.6674   -0.0000 </r>
      </set>
      <set comment="kpoint 9">
       <r>   -4.8517    1.0000 </r>
       <r>   -4.1568    1.0000 </r>
       <r>   -4.1568    1.0000 </r>
       <r>   -3.6843    1.0000 </r>
       <r>   -1.1664    1.0000 </r>
       <r>   -0.6338    1.0000 </r>
       <r>   -0.6338    1.0000 </r>
       <r>    0.2003    1.0000 </r>
       <r>    2.0699    1.0000 </r>
       <r>    2.5735    1.0000 </r>
       <r>    2.5735    1.0000 </r>
       <r>    3.3976    1.0000 </r>
       <r>    3.7249    1.0000 </r>
       <r>    3.7442    1.0000 </r>
       <r>    3.7442    1.0000 </r>
       <r>    4.4879    1.0000 </r>
       <r>    7.4205   -0.0000 </r>
       <r>    7.6320   -0.0000 </r>
       <r>    8.0430   -0.0000 </r>
       <r>    8.0430   -0.0000 </r>
       <r>    8.6356   -0.0000 </r>
       <r>    8.6356   -0.0000 </r>
       <r>    8.9641   -0.0000 </r>
       <r>    9.0424   -0.0000 </r>
      </set>
      <set comment="kpoint 10">
       <r>   -4.4832    1.0000 </r>
       <r>   -4.0068    1.0000 </r>
       <r>   -4.0068    1.0000 </r>
       <r>   -4.0068    1.0000 </r>
       <r>   -1.2567    1.0000 </r>
       <r>   -1.2567    1.0000 </r>
       <r>   -1.2567    1.0000 </r>
       <r>   -0.7279    1.0000 </r>
       <r>    3.4510    1.0000 </r>
       <r>    3.4510    1.0000 </r>
       <r>    3.4510    1.0000 </r>
       <r>    3.9790    1.0000 </r>
       <r>    3.9790    1.0000 </r>
       <r>    3.9790    1.0000 </r>
       <r>    4.2806    1.0000 </r>
       <r>    4.2806    1.0000 </r>
       <r>    6.8263   -0.0000 </r>
       <r>    7.3934   -0.0000 </r>
       <r>    7.3934   -0.0000 </r>
       <r>    7.3934   -0.0000 </r>
       <r>    8.6721   -0.0000 </r>
       <r>    8.6721   -0.0000 </r>
       <r>    8.6775   -0.0000 </r>
       <r>    8.7900   -0.0000 </r>
      </set>
     </set>
    </set>
   </array>
  </eigenvalues>
  <separator name="orbital magnetization" >
   <v name="MAGDIPOLOUT">      0.00000000      0.00000000      0.00000000</v>
  </separator>
  <dos>
   <i name="efermi">      5.46632282 </i>
   <total>
    <array>
     <dimension dim="1">gridpoints</dimension>
     <dimension dim="2">spin</dimension>
     <field>energy</field>
     <field>total</field>
     <field>integrated</field>
     <set>
      <set comment="spin 1">
       <r>    -8.2780     0.0000     0.0000 </r>
       <r>    -8.2115     0.0000     0.0000 </r>
       <r>    -8.1450     0.0000     0.0000 </r>
       <r>    -8.0785     0.0000     0.0000 </r>
       <r>    -8.0121     0.0000     0.0000 </r>
       <r>    -7.9456     0.0000     0.0000 </r>
       <r>    -7.8791    -0.0000    -0.0000 </r>
       <r>    -7.8126    -0.0000    -0.0000 </r>
       <r>    -7.7461    -0.0000    -0.0000 </r>
       <r>    -7.6796    -0.0000    -0.0000 </r>
       <r>    -7.6132    -0.0000    -0.0000 </r>
       <r>    -7.5467    -0.0000    -0.0000 </r>
       <r>    -7.4802    -0.0000    -0.0000 </r>
       <r>    -7.4137    -0.0000    -0.0000 </r>
       <r>    -7.3472    -0.0000    -0.0000 </r>
       <r>    -7.2807    -0.0000    -0.0000 </r>
       <r>    -7.2142    -0.0000    -0.0000 </r>
       <r>    -7.1478    -0.0000    -0.0000 </r>
       <r>    -7.0813    -0.0000    -0.0000 </r>
       <r>    -7.0148    -0.0000    -0.0000 </r>
       <r>    -6.9483    -0.0000    -0.0000 </r>
       <r>    -6.8818    -0.0000    -0.0000 </r>
       <r>    -6.8153    -0.0001    -0.0000 </r>
       <r>    -6.7489    -0.0004    -0.0000 </r>
       <r>    -6.6824    -0.0015    -0.0001 </r>
       <r>    -6.6159    -0.0040    -0.0004 </r>
       <r>    -6.5494    -0.0080    -0.0009 </r>
       <r>    -6.4829    -0.0114    -0.0017 </r>
       <r>    -6.4164    -0.0082    -0.0022 </r>
       <r>    -6.3499     0.0132    -0.0014 </r>
       <r>    -6.2835     0.0714     0.0034 </r>
       <r>    -6.2170     0.1855     0.0157 </r>
       <r>    -6.1505     0.3628     0.0398 </r>
       <r>    -6.0840     0.5880     0.0789 </r>
       <r>    -6.0175     0.8200     0.1334 </r>
       <r>    -5.9510     0.9914     0.1994 </r>
       <r>    -5.8846     1.0348     0.2682 </r>
       <r>    -5.8181     0.9364     0.3304 </r>
       <r>    -5.7516     0.7625     0.3811 </r>
       <r>    -5.6851     0.6409     0.4237 </r>
       <r>    -5.6186     0.7216     0.4717 </r>
       <r>    -5.5521     1.0944     0.5445 </r>
       <r>    -5.4856     1.6835     0.6564 </r>
       <r>    -5.4192     2.2397     0.8053 </r>
       <r>    -5.3527     2.4757     0.9699 </r>
       <r>    -5.2862     2.2320     1.1183 </r>
       <r>    -5.2197     1.5898     1.2240 </r>
       <r>    -5.1532     0.8867     1.2829 </r>
       <r>    -5.0867     0.5420     1.3190 </r>
       <r>    -5.0203     0.7565     1.3692 </r>
       <r>    -4.9538     1.3690     1.4603 </r>
       <r>    -4.8873     2.0022     1.5934 </r>
       <r>    -4.8208     2.3600     1.7503 </r>
       <r>    -4.7543     2.4541     1.9134 </r>
       <r>    -4.6878     2.5353     2.0820 </r>
       <r>    -4.6213     2.7413     2.2643 </r>
       <r>    -4.5549     2.8626     2.4546 </r>
       <r>    -4.4884     2.5830     2.6263 </r>
       <r>    -4.4219     1.9867     2.7584 </r>
       <r>    -4.3554     1.6985     2.8713 </r>
       <r>    -4.2889     2.3089     3.0248 </r>
       <r>    -4.2224     3.6263     3.2659 </r>
       <r>    -4.1559     4.7114     3.5791 </r>
       <r>    -4.0895     4.7521     3.8951 </r>
       <r>    -4.0230     3.7397     4.1437 </r>
       <r>    -3.9565     2.2833     4.2955 </r>
       <r>    -3.8900     1.0872     4.3678 </r>
       <r>    -3.8235     0.6817     4.4131 </r>
       <r>    -3.7570     1.2725     4.4977 </r>
       <r>    -3.6906     2.5668     4.6684 </r>
       <r>    -3.6241     3.8877     4.9269 </r>
       <r>    -3.5576     4.6852     5.2384 </r>
       <r>    -3.4911     4.9625     5.5683 </r>
       <r>    -3.4246     5.0908     5.9067 </r>
       <r>    -3.3581     5.1827     6.2513 </r>
       <r>    -3.2916     4.8450     6.5734 </r>
       <r>    -3.2252     3.7200     6.8208 </r>
       <r>    -3.1587     2.1009     6.9604 </r>
       <r>    -3.0922     0.7725     7.0118 </r>
       <r>    -3.0257     0.3145     7.0327 </r>
       <r>    -2.9592     0.6663     7.0770 </r>
       <r>    -2.8927     1.2512     7.1602 </r>
       <r>    -2.8263     1.4649     7.2576 </r>
       <r>    -2.7598     1.1598     7.3347 </r>
       <r>    -2.6933     0.6890     7.3805 </r>
       <r>    -2.6268     0.4511     7.4105 </r>
       <r>    -2.5603     0.4872     7.4429 </r>
       <r>    -2.4938     0.6103     7.4835 </r>
       <r>    -2.4273     0.8196     7.5380 </r>
       <r>    -2.3609     1.3543     7.6280 </r>
       <r>    -2.2944     2.2515     7.7777 </r>
       <r>    -2.2279     3.0447     7.9801 </r>
       <r>    -2.1614     3.1455     8.1892 </r>
       <r>    -2.0949     2.4930     8.3550 </r>
       <r>    -2.0284     1.6089     8.4620 </r>
       <r>    -1.9620     0.9909     8.5278 </r>
       <r>    -1.8955     0.6687     8.5723 </r>
       <r>    -1.8290     0.4192     8.6002 </r>
       <r>    -1.7625     0.1976     8.6133 </r>
       <r>    -1.6960     0.1926     8.6261 </r>
       <r>    -1.6295     0.5170     8.6605 </r>
       <r>    -1.5630     0.9713     8.7251 </r>
       <r>    -1.4966     1.2551     8.8085 </r>
       <r>    -1.4301     1.4943     8.9078 </r>
       <r>    -1.3636     2.3225     9.0623 </r>
       <r>    -1.2971     4.0742     9.3331 </r>
       <r>    -1.2306     6.0134     9.7329 </r>
       <r>    -1.1641     6.8578    10.1889 </r>
       <r>    -1.0977     6.1290    10.5964 </r>
       <r>    -1.0312     4.6114    10.9029 </r>
       <r>    -0.9647     3.4571    11.1328 </r>
       <r>    -0.8982     3.1931    11.3451 </r>
       <r>    -0.8317     3.6225    11.5859 </r>
       <r>    -0.7652     4.2836    11.8707 </r>
       <r>    -0.6987     4.7298    12.1852 </r>
       <r>    -0.6323     4.5537    12.4879 </r>
       <r>    -0.5658     3.5612    12.7247 </r>
       <r>    -0.4993     2.0509    12.8611 </r>
       <r>    -0.4328     0.6721    12.9057 </r>
       <r>    -0.3663    -0.1055    12.8987 </r>
       <r>    -0.2998    -0.2401    12.8828 </r>
       <r>    -0.2334     0.0923    12.8889 </r>
       <r>    -0.1669     0.6785    12.9340 </r>
       <r>    -0.1004     1.2581    13.0176 </r>
       <r>    -0.0339     1.6547    13.1277 </r>
       <r>     0.0326     1.9989    13.2606 </r>
       <r>     0.0991     2.5196    13.4281 </r>
       <r>     0.1656     3.0272    13.6293 </r>
       <r>     0.2320     2.9627    13.8263 </r>
       <r>     0.2985     2.1123    13.9667 </r>
       <r>     0.3650     0.9655    14.0309 </r>
       <r>     0.4315     0.2403    14.0469 </r>
       <r>     0.4980     0.2651    14.0645 </r>
       <r>     0.5645     0.8208    14.1191 </r>
       <r>     0.6309     1.3677    14.2100 </r>
       <r>     0.6974     1.4662    14.3075 </r>
       <r>     0.7639     1.1466    14.3837 </r>
       <r>     0.8304     0.8222    14.4384 </r>
       <r>     0.8969     0.7738    14.4899 </r>
       <r>     0.9634     0.8865    14.5488 </r>
       <r>     1.0299     1.0175    14.6164 </r>
       <r>     1.0963     1.3879    14.7087 </r>
       <r>     1.1628     2.2605    14.8590 </r>
       <r>     1.2293     3.2900    15.0777 </r>
       <r>     1.2958     3.6640    15.3213 </r>
       <r>     1.3623     3.0745    15.5257 </r>
       <r>     1.4288     2.1921    15.6715 </r>
       <r>     1.4952     1.9670    15.8023 </r>
       <r>     1.5617     2.7380    15.9843 </r>
       <r>     1.6282     4.1499    16.2602 </r>
       <r>     1.6947     5.5947    16.6322 </r>
       <r>     1.7612     6.5267    17.0661 </r>
       <r>     1.8277     6.6253    17.5066 </r>
       <r>     1.8942     5.9609    17.9029 </r>
       <r>     1.9606     4.9594    18.2326 </r>
       <r>     2.0271     4.0464    18.5016 </r>
       <r>     2.0936     3.3959    18.7274 </r>
       <r>     2.1601     3.0522    18.9303 </r>
       <r>     2.2266     3.0074    19.1303 </r>
       <r>     2.2931     3.1083    19.3369 </r>
       <r>     2.3596     3.3017    19.5564 </r>
       <r>     2.4260     3.9733    19.8206 </r>
       <r>     2.4925     5.4831    20.1851 </r>
       <r>     2.5590     7.3454    20.6735 </r>
       <r>     2.6255     8.4742    21.2369 </r>
       <r>     2.6920     8.3339    21.7910 </r>
       <r>     2.7585     7.3840    22.2819 </r>
       <r>     2.8249     6.4213    22.7088 </r>
       <r>     2.8914     5.9067    23.1015 </r>
       <r>     2.9579     5.7723    23.4853 </r>
       <r>     3.0244     5.4780    23.8495 </r>
       <r>     3.0909     4.5118    24.1495 </r>
       <r>     3.1574     3.2124    24.3630 </r>
       <r>     3.2239     2.7889    24.5485 </r>
       <r>     3.2903     4.0873    24.8202 </r>
       <r>     3.3568     6.4173    25.2469 </r>
       <r>     3.4233     7.9860    25.7778 </r>
       <r>     3.4898     7.7294    26.2917 </r>
       <r>     3.5563     6.4646    26.7215 </r>
       <r>     3.6228     5.7859    27.1062 </r>
       <r>     3.6892     6.0518    27.5085 </r>
       <r>     3.7557     6.1669    27.9185 </r>
       <r>     3.8222     5.3126    28.2717 </r>
       <r>     3.8887     4.0564    28.5414 </r>
       <r>     3.9552     3.4605    28.7715 </r>
       <r>     4.0217     3.7407    29.0202 </r>
       <r>     4.0882     4.2251    29.3011 </r>
       <r>     4.1546     4.2778    29.5855 </r>
       <r>     4.2211     3.9084    29.8453 </r>
       <r>     4.2876     3.5938    30.0843 </r>
       <r>     4.3541     3.6974    30.3301 </r>
       <r>     4.4206     4.0588    30.5999 </r>
       <r>     4.4871     4.1057    30.8729 </r>
       <r>     4.5535     3.4387    31.1015 </r>
       <r>     4.6200     2.3324    31.2566 </r>
       <r>     4.6865     1.5169    31.3574 </r>
       <r>     4.7530     1.3943    31.4501 </r>
       <r>     4.8195     1.6202    31.5579 </r>
       <r>     4.8860     1.5712    31.6623 </r>
       <r>     4.9525     1.0828    31.7343 </r>
       <r>     5.0189     0.5455    31.7706 </r>
       <r>     5.0854     0.3666    31.7950 </r>
       <r>     5.1519     0.5423    31.8310 </r>
       <r>     5.2184     0.7601    31.8815 </r>
       <r>     5.2849     0.7696    31.9327 </r>
       <r>     5.3514     0.5746    31.9709 </r>
       <r>     5.4178     0.3252    31.9925 </r>
       <r>     5.4843     0.1351    32.0015 </r>
       <r>     5.5508     0.0276    32.0034 </r>
       <r>     5.6173    -0.0202    32.0020 </r>
       <r>     5.6838    -0.0376    31.9995 </r>
       <r>     5.7503    -0.0409    31.9968 </r>
       <r>     5.8168    -0.0192    31.9955 </r>
       <r>     5.8832     0.0613    31.9996 </r>
       <r>     5.9497     0.2198    32.0142 </r>
       <r>     6.0162     0.4242    32.0424 </r>
       <r>     6.0827     0.6051    32.0826 </r>
       <r>     6.1492     0.7089    32.1298 </r>
       <r>     6.2157     0.7298    32.1783 </r>
       <r>     6.2821     0.7053    32.2252 </r>
       <r>     6.3486     0.6999    32.2717 </r>
       <r>     6.4151     0.7743    32.3232 </r>
       <r>     6.4816     0.9589    32.3870 </r>
       <r>     6.5481     1.2568    32.4705 </r>
       <r>     6.6146     1.6411    32.5796 </r>
       <r>     6.6811     2.0648    32.7169 </r>
       <r>     6.7475     2.5254    32.8848 </r>
       <r>     6.8140     3.0462    33.0873 </r>
       <r>     6.8805     3.5091    33.3206 </r>
       <r>     6.9470     3.6866    33.5657 </r>
       <r>     7.0135     3.5741    33.8034 </r>
       <r>     7.0800     3.4579    34.0333 </r>
       <r>     7.1464     3.5098    34.2666 </r>
       <r>     7.2129     3.6319    34.5081 </r>
       <r>     7.2794     3.8541    34.7643 </r>
       <r>     7.3459     4.4565    35.0606 </r>
       <r>     7.4124     5.4938    35.4259 </r>
       <r>     7.4789     6.6512    35.8681 </r>
       <r>     7.5454     7.7218    36.3814 </r>
       <r>     7.6118     8.6662    36.9576 </r>
       <r>     7.6783     9.0354    37.5583 </r>
       <r>     7.7448     8.0564    38.0940 </r>
       <r>     7.8113     5.7374    38.4754 </r>
       <r>     7.8778     3.3549    38.6985 </r>
       <r>     7.9443     2.3188    38.8526 </r>
       <r>     8.0107     2.7818    39.0376 </r>
       <r>     8.0772     3.6744    39.2819 </r>
       <r>     8.1437     3.9211    39.5426 </r>
       <r>     8.2102     3.3622    39.7661 </r>
       <r>     8.2767     2.6297    39.9409 </r>
       <r>     8.3432     2.4282    40.1024 </r>
       <r>     8.4097     3.0265    40.3036 </r>
       <r>     8.4761     4.3713    40.5942 </r>
       <r>     8.5426     6.4332    41.0219 </r>
       <r>     8.6091     8.9657    41.6180 </r>
       <r>     8.6756    10.9695    42.3473 </r>
       <r>     8.7421    11.2348    43.0942 </r>
       <r>     8.8086     9.7428    43.7420 </r>
       <r>     8.8751     7.8343    44.2628 </r>
       <r>     8.9415     6.6741    44.7066 </r>
       <r>     9.0080     6.1478    45.1153 </r>
       <r>     9.0745     5.5009    45.4810 </r>
       <r>     9.1410     4.4435    45.7764 </r>
       <r>     9.2075     3.2963    45.9956 </r>
       <r>     9.2740     2.4593    46.1591 </r>
       <r>     9.3404     2.0788    46.2973 </r>
       <r>     9.4069     2.1464    46.4400 </r>
       <r>     9.4734     2.7245    46.6211 </r>
       <r>     9.5399     3.8290    46.8757 </r>
       <r>     9.6064     4.9855    47.2072 </r>
       <r>     9.6729     5.2750    47.5579 </r>
       <r>     9.7394     4.2077    47.8376 </r>
       <r>     9.8058     2.3410    47.9933 </r>
       <r>     9.8723     0.7204    48.0412 </r>
       <r>     9.9388    -0.0956    48.0348 </r>
       <r>    10.0053    -0.2593    48.0176 </r>
       <r>    10.0718    -0.1684    48.0064 </r>
       <r>    10.1383    -0.0695    48.0018 </r>
       <r>    10.2047    -0.0208    48.0004 </r>
       <r>    10.2712    -0.0047    48.0001 </r>
       <r>    10.3377    -0.0008    48.0000 </r>
       <r>    10.4042    -0.0001    48.0000 </r>
       <r>    10.4707    -0.0000    48.0000 </r>
       <r>    10.5372    -0.0000    48.0000 </r>
       <r>    10.6037    -0.0000    48.0000 </r>
       <r>    10.6701    -0.0000    48.0000 </r>
       <r>    10.7366    -0.0000    48.0000 </r>
       <r>    10.8031    -0.0000    48.0000 </r>
       <r>    10.8696    -0.0000    48.0000 </r>
       <r>    10.9361    -0.0000    48.0000 </r>
       <r>    11.0026     0.0000    48.0000 </r>
       <r>    11.0690     0.0000    48.0000 </r>
       <r>    11.1355     0.0000    48.0000 </r>
       <r>    11.2020     0.0000    48.0000 </r>
       <r>    11.2685     0.0000    48.0000 </r>
       <r>    11.3350     0.0000    48.0000 </r>
       <r>    11.4015     0.0000    48.0000 </r>
       <r>    11.4680     0.0000    48.0000 </r>
       <r>    11.5344     0.0000    48.0000 </r>
       <r>    11.6009     0.0000    48.0000 </r>
       <r>    11.6674     0.0000    48.0000 </r>
      </set>
     </set>
    </array>
   </total>
  </dos>
 </calculation>
 <structure name="finalpos" >
  <crystal>
   <varray name="basis" >
    <v>       5.51533825       0.00000000       0.00000000 </v>
    <v>       0.00000000       5.51533825       0.00000000 </v>
    <v>       0.00000000       0.00000000       5.51533825 </v>
   </varray>
   <i name="volume">    167.77083169 </i>
   <varray name="rec_basis" >
    <v>       0.18131254      -0.00000000       0.00000000 </v>
    <v>       0.00000000       0.18131254       0.00000000 </v>
    <v>      -0.00000000      -0.00000000       0.18131254 </v>
   </varray>
  </crystal>
  <varray name="positions" >
   <v>       0.75000000       0.75000000       0.25000000 </v>
   <v>       0.00000000       0.50000000       0.50000000 </v>
   <v>       0.75000000       0.25000000       0.75000000 </v>
   <v>       0.00000000       0.00000000       0.00000000 </v>
   <v>       0.25000000       0.75000000       0.75000000 </v>
   <v>       0.50000000       0.50000000       0.00000000 </v>
   <v>       0.25000000       0.25000000       0.25000000 </v>
   <v>       0.50000000       0.00000000       0.50000000 </v>
  </varray>
 </structure>
</modeling>
